#

8 atoms
1 atom types

0.0 5.431 xlo xhi
0.0 5.431 ylo yhi
0.0 5.431 zlo zhi

0.0 0.0 0.0 xy xz yz


Atom Type Labels

1 Si


Atoms

1 Si 0.0 0.0 0.0
2 Si 0.0 2.7155 2.7155
3 Si 2.7155 0.0 2.7155
4 Si 2.7155 2.7155 0.0
5 Si 1.35775 1.35775 1.35775
6 Si 1.35775 4.07325 4.07325
7 Si 4.07325 1.35775 4.07325
8 Si 4.07325 4.07325 1.35775
