 14.400
   4.87209780  -0.00000000   0.00000000  -0.00000000   4.87209780   0.00000000   0.00000000   0.00000000   4.87209780
   4.13155112   0.15271880   0.15271880   0.15271880   4.13155112   0.15271880   0.15271880   0.15271880   4.13155112
   5.71264492  -0.36348570  -0.36348570  -0.36348570   5.71264492  -0.36348570  -0.36348570  -0.36348570   5.71264492
  -2.97515858   0.00000000  -1.02752120   0.00000000  -2.48652948  -0.00000000  -1.02752120   0.00000000  -2.97515858
  -2.81469878   0.00000000  -0.00000000   0.00000000  -2.81469878   0.00000000  -0.00000000   0.00000000  -2.81469878
