# epsilon and Z* of atoms 1 3
   4.4350090   0.0000000   0.0000000   0.0000000   4.4350090   0.0000000   0.0000000   0.0000000   4.6532690
   2.5126475   0.0000000   0.0000000   0.0000000   2.5126475   0.0000000   0.0000000   0.0000000   2.6735300
  -2.5126475   0.0000000   0.0000000   0.0000000  -2.5126475   0.0000000   0.0000000   0.0000000  -2.6735300
