300  
6    

1    
  0.0300000000000000   0.0000000000000000   0.0000000000000000
  -0.6488999400    0.0222579700   -0.0109526000
   0.0737833300    0.0104191900   -0.0030674400
   0.0070625500    0.0016263600    0.0024093100
   0.0070256500   -0.0016772200    0.0043763300
   0.0712738700   -0.0111117600    0.0102450900
  -0.0041131300   -0.0333319000   -0.0013693400
  -0.0047417700    0.0339397100    0.0081127700
   0.0077578700    0.0047534200    0.0008030500
   0.0039749300    0.0000226300    0.0033808300
   0.0075515200   -0.0046074700    0.0058574700
  -0.0013150500   -0.0031738200    0.0030209100
  -0.0004622000   -0.0000366500    0.0033824000
  -0.0013585400    0.0032072000    0.0037586200
   0.0015399900    0.0014182800    0.0032292500
   0.0015308100   -0.0014044300    0.0035275900
  -0.0013216200   -0.0064440100    0.0020418500
   0.0015271000   -0.0014010300    0.0031207000
   0.0015400600    0.0014029100    0.0036638400
  -0.0013524900    0.0065255900    0.0047523100
  -0.0004578200    0.0000091900    0.0033935100
  -0.0044358500   -0.0551439400   -0.0079240700
   0.0075964700   -0.0047175500    0.0016151200
   0.0039615100   -0.0000123700    0.0034055200
   0.0077086500    0.0046573100    0.0052138900
  -0.0043993300    0.0552117800    0.0148927700
  -0.0011673800   -0.0000058500    0.0033055200
  -0.0014672400   -0.0000015800    0.0099626400
   0.0022212700    0.0001189800    0.0046297100
   0.0022082700   -0.0001408500    0.0021287100
  -0.0014134700    0.0000155600   -0.0031843200
  -0.0013698100   -0.0006606200    0.0027753900
  -0.0013777900    0.0006418800    0.0039575600
   0.0006574900    0.0010875700    0.0051548100
   0.0016331200    0.0000053300    0.0033812000
   0.0007010000   -0.0010851700    0.0016397800
  -0.0001477800   -0.0010158900    0.0033290200
  -0.0005232100   -0.0000017800    0.0033718100
  -0.0001566600    0.0010032700    0.0034280100
   0.0004070900    0.0007063400    0.0035306500
   0.0004211800   -0.0007003200    0.0032187400
   0.0000417400   -0.0016091100    0.0045578100
   0.0005646000   -0.0006525300    0.0037298700
   0.0005534600    0.0006562500    0.0030250600
   0.0000461200    0.0016117600    0.0021767900
  -0.0012026700    0.0000177800    0.0033777300
  -0.0019851500    0.0004023400    0.0093637500
   0.0011404200   -0.0009665100    0.0053718300
   0.0016911800   -0.0000018500    0.0033859000
   0.0011328100    0.0009496000    0.0013774400
  -0.0019416300   -0.0003730200   -0.0025946400
  -0.0011697300    0.0000131700    0.0035222500
  -0.0014827300   -0.0007019900    0.0002910700
   0.0022277300    0.0003623000    0.0027764500
   0.0022011700   -0.0003544000    0.0039881800
  -0.0013950900    0.0006775900    0.0064366600
  -0.0019201400   -0.0003318900    0.0042040700
  -0.0020080900    0.0003070200    0.0025938900
   0.0011335800    0.0009653600    0.0025640700
   0.0016903800    0.0000055600    0.0033880300
   0.0011424200   -0.0009465400    0.0042104600
   0.0000419500   -0.0011261900    0.0035220900
  -0.0011949200   -0.0000030700    0.0033878600
   0.0000368500    0.0011274200    0.0032737100
   0.0005534100    0.0006543500    0.0033080600
   0.0005660100   -0.0006519200    0.0034755700
  -0.0001543300   -0.0014917500    0.0029114600
   0.0004195300   -0.0007094500    0.0032485200
   0.0004182300    0.0007093800    0.0035657700
  -0.0001633900    0.0014956600    0.0038727700
  -0.0005198100    0.0000152500    0.0034017100
  -0.0013826800    0.0000667000    0.0011295900
   0.0006704400   -0.0011104900    0.0025087000
   0.0016467500   -0.0000116400    0.0033979800
   0.0006775500    0.0010589000    0.0042806000
  -0.0013681100   -0.0000273900    0.0056733300
  -0.0040146700   -0.0030673600    0.0620490200
   0.0076431900   -0.0013978500    0.0082987500
   0.0042049500   -0.0000033700    0.0033955200
   0.0077149300    0.0013492700   -0.0015050700
  -0.0038140400    0.0029150500   -0.0552281000
  -0.0090836700   -0.0002179900    0.0030954600
   0.0003919400    0.0081138800    0.0127051900
   0.0031667700    0.0010227900    0.0044157600
   0.0031454000   -0.0010401100    0.0024243100
   0.0004790400   -0.0081062800   -0.0055805000
  -0.0006183500   -0.0012535200    0.0035790100
  -0.0006720500    0.0012048100    0.0031977200
   0.0001971900    0.0028080500    0.0043427600
   0.0007317300    0.0000175700    0.0034074100
   0.0001947100   -0.0027551600    0.0024741400
   0.0009792100   -0.0018424900    0.0040380500
   0.0012623500   -0.0000065900    0.0034017500
   0.0009849100    0.0018579400    0.0027542500
  -0.0016209500    0.0016920000    0.0033419400
  -0.0016125100   -0.0016750700    0.0034770500
   0.0036274500   -0.0058885100    0.0084340200
   0.0031979800   -0.0011290400    0.0040940500
   0.0032156500    0.0011145600    0.0026908600
   0.0036512100    0.0059444600   -0.0017533000
  -0.0136082400    0.0000206700    0.0033918000
  -0.0010167600   -0.0001617300    0.0041781000
   0.0002663200    0.0002682000    0.0040571200
   0.0015219700   -0.0000019100    0.0033766700
   0.0002730100   -0.0002623700    0.0027083400
  -0.0010045000    0.0001516500    0.0025714600
  -0.0012738000    0.0000010300    0.0033833100
  -0.0001953300    0.0003407900    0.0038671000
   0.0008292200    0.0003694200    0.0036087300
   0.0008346500   -0.0003726200    0.0031720000
  -0.0001737300   -0.0003344500    0.0028801400
  -0.0002572700   -0.0005734600    0.0034227900
  -0.0002746300    0.0005690200    0.0033423200
   0.0001442200    0.0007706200    0.0034921900
   0.0002267800    0.0000042800    0.0033854600
   0.0001493400   -0.0007633000    0.0032638300
   0.0002067200   -0.0007522700    0.0035512100
   0.0005515000   -0.0000179600    0.0033742900
   0.0002309400    0.0007507200    0.0032168700
  -0.0005013500    0.0004001000    0.0032809000
  -0.0004889000   -0.0003901600    0.0034890000
  -0.0007372000   -0.0003124400    0.0041018300
   0.0011127300   -0.0003177000    0.0035996500
   0.0011073200    0.0003263400    0.0031457400
  -0.0007154700    0.0003061200    0.0026724800
  -0.0007620500    0.0000096400    0.0033719800
  -0.0042385000   -0.0031236400   -0.0388747400
   0.0077749600   -0.0036643600   -0.0000874200
   0.0042059000   -0.0000046600    0.0033654900
   0.0075909900    0.0035052100    0.0068285100
  -0.0035989400    0.0028685100    0.0449813300
  -0.0090780800   -0.0002806900    0.0036543900
   0.0004047000    0.0082267300   -0.0026472500
   0.0031664200    0.0010756900    0.0024623800
   0.0031385300   -0.0010761000    0.0042756000
   0.0004684200   -0.0080091900    0.0092409400
  -0.0006405100   -0.0034206200    0.0037557000
  -0.0006546300    0.0034424700    0.0030136100
   0.0001859100    0.0027577700    0.0025936300
   0.0007436900    0.0000153700    0.0033762100
   0.0001992400   -0.0027058000    0.0041318200
   0.0009889600   -0.0018508200    0.0028983800
   0.0012501500   -0.0000134900    0.0033777200
   0.0010025500    0.0018542600    0.0038581500
  -0.0016361600    0.0017399500    0.0035155800
  -0.0016126200   -0.0017313400    0.0032426700
   0.0036334500   -0.0037147000    0.0002961200
   0.0031975100   -0.0011382600    0.0025933600
   0.0032112900    0.0011178700    0.0041390200
   0.0036422800    0.0036843500    0.0064734000
  -0.0136004500    0.0000498500    0.0033775800
   0.0205877500   -0.0000387700   -0.0032044300
  -0.0057539200   -0.0043010700   -0.0184736100
  -0.0041617200   -0.0003654400   -0.0048959800
  -0.0041668200    0.0003848800   -0.0018978000
  -0.0057854700    0.0044089700    0.0116378800
   0.0039466500    0.0020886300   -0.0038211000
   0.0041074400   -0.0020502600   -0.0028845700
  -0.0021574800   -0.0028200300   -0.0062214500
  -0.0023467000   -0.0000023200   -0.0033995600
  -0.0021511400    0.0028005500   -0.0006576400
   0.0001540500    0.0017139500   -0.0033180700
   0.0004737600    0.0000096400   -0.0033845400
   0.0001804600   -0.0017182500   -0.0034607900
  -0.0003931600   -0.0011402100   -0.0035818300
  -0.0003921400    0.0011153900   -0.0032054500
  -0.0001872800    0.0030715400   -0.0048095800
  -0.0011579500    0.0009741200   -0.0037545700
  -0.0011612000   -0.0009701200   -0.0030219900
  -0.0001864900   -0.0030905300   -0.0019553100
   0.0027141000   -0.0000163900   -0.0033860800
   0.0046670900    0.0096077500   -0.0189117900
  -0.0029993600    0.0020166400   -0.0058668800
  -0.0028423200    0.0000061600   -0.0033914800
  -0.0030240800   -0.0020076600   -0.0009048300
   0.0047174900   -0.0096429000    0.0121283600
   0.0016243500   -0.0000047300   -0.0033910700
   0.0005723000    0.0001574100   -0.0034069700
  -0.0013103100   -0.0002257900   -0.0032885900
  -0.0013160000    0.0002247400   -0.0034722800
   0.0005417000   -0.0001473300   -0.0033648300
   0.0010579400    0.0003851700   -0.0035661300
   0.0010879500   -0.0003741800   -0.0032111200
  -0.0005589500   -0.0005658100   -0.0032441600
  -0.0010751000   -0.0000037400   -0.0033844700
  -0.0005704400    0.0005659500   -0.0035207900
   0.0000268500    0.0007530800   -0.0035046300
   0.0004619700    0.0000034500   -0.0033856500
   0.0000377800   -0.0007531100   -0.0032677000
  -0.0002638100   -0.0004733500   -0.0033624300
  -0.0002627800    0.0004631700   -0.0034110700
   0.0002078100    0.0008983600   -0.0034123600
  -0.0004142900    0.0004526700   -0.0033976800
  -0.0004149600   -0.0004493500   -0.0033730700
   0.0002047600   -0.0009051900   -0.0033608000
   0.0004154900   -0.0000062700   -0.0033862000
   0.0010137200    0.0001720600   -0.0035863800
  -0.0004515000    0.0005357600   -0.0033204000
  -0.0011970700    0.0000048600   -0.0033837600
  -0.0004661100   -0.0005268900   -0.0034418700
   0.0010108800   -0.0001886100   -0.0031902300
   0.0752962900   -0.0001285800   -0.0016714800
  -0.0102969700   -0.0034342800    0.0134261600
  -0.0052881300   -0.0003160300   -0.0020835800
  -0.0052372600    0.0003430800   -0.0046834500
  -0.0100358500    0.0035278300   -0.0198620300
   0.0040107700    0.0054740100   -0.0066584200
   0.0042362800   -0.0054744100   -0.0001282000
  -0.0029772400   -0.0034438300   -0.0011819000
  -0.0027087000   -0.0000095600   -0.0033747200
  -0.0029474800    0.0033683100   -0.0055218100
  -0.0000195400    0.0023976200   -0.0033457400
   0.0010863500   -0.0000010000   -0.0033904600
   0.0000053700   -0.0024089000   -0.0034245800
  -0.0005371100   -0.0012704400   -0.0031927300
  -0.0005340500    0.0012376300   -0.0035633300
  -0.0002653100    0.0035030200   -0.0020548500
  -0.0012195700    0.0011064800   -0.0030094000
  -0.0012177600   -0.0010972000   -0.0037629400
  -0.0002703100   -0.0035253300   -0.0047317900
   0.0029370800   -0.0000053800   -0.0033840900
   0.0048195100    0.0113848800    0.0100311600
  -0.0035599500    0.0027146900   -0.0010185400
  -0.0031275800    0.0000124200   -0.0033849900
  -0.0035558500   -0.0026491300   -0.0057655700
   0.0046553800   -0.0113648100   -0.0167183100
   0.2100761300   -0.0811619700    0.0520896700
  -0.0141865500    0.0006213600   -0.0038263800
  -0.0065586200    0.0000176100   -0.0033983300
  -0.0143343000   -0.0004729300   -0.0030489800
   0.1808216300    0.0617459200   -0.0461021200
   0.0720424500   -0.0018474400   -0.0037674400
  -0.0101146200   -0.0167876500   -0.0053995700
  -0.0050192300   -0.0014752100   -0.0033934300
  -0.0049607000    0.0014838700   -0.0033934000
  -0.0098420800    0.0164657600   -0.0014852400
   0.0035968400   -0.0000403400   -0.0024909300
   0.0037512800    0.0001290600   -0.0043029700
  -0.0016442200   -0.0042014500   -0.0034055400
  -0.0013382300   -0.0000137100   -0.0033900700
  -0.0016254400    0.0041092400   -0.0033725400
  -0.0009187100    0.0032419600   -0.0032369600
  -0.0011498400    0.0000056700   -0.0033916300
  -0.0009201400   -0.0032691700   -0.0035442600
   0.0015716000   -0.0015867200   -0.0034071700
   0.0015648400    0.0015481900   -0.0033729300
  -0.0057898500    0.0151658100   -0.0029004600
  -0.0039316900    0.0016190300   -0.0034354800
  -0.0039456300   -0.0016024700   -0.0033496200
  -0.0058863700   -0.0154257000   -0.0039346300
   0.0188167700    0.0000531900   -0.0033586400
   0.0025248900   -0.0006666100   -0.0051600300
  -0.0014450100    0.0004509700   -0.0059917700
  -0.0020018400    0.0000052700   -0.0033816400
  -0.0014633400   -0.0004468000   -0.0007802200
   0.0024806500    0.0006522600   -0.0015644700
   0.0013615700    0.0000205100   -0.0033574700
   0.0006724100   -0.0017075800   -0.0055588900
  -0.0013069000   -0.0004224300   -0.0041083200
  -0.0013126400    0.0004277700   -0.0026692900
   0.0006427300    0.0017169200   -0.0011973100
   0.0003489600    0.0006683700   -0.0032318500
   0.0003551700   -0.0006517200   -0.0035211000
  -0.0001446500   -0.0011137100   -0.0038447300
  -0.0004520000   -0.0000052400   -0.0033855800
  -0.0001551900    0.0011042800   -0.0029304000
  -0.0003340000    0.0009618900   -0.0037233300
  -0.0005353500    0.0000024400   -0.0033794800
  -0.0003319600   -0.0009643400   -0.0030366100
   0.0005974300   -0.0006694100   -0.0031177800
   0.0006006100    0.0006554700   -0.0036443000
  -0.0003629200    0.0010074600   -0.0058417700
  -0.0014308100    0.0005226000   -0.0039465800
  -0.0014368900   -0.0005163100   -0.0028109300
  -0.0003752600   -0.0010132400   -0.0009190800
   0.0036240300   -0.0000089900   -0.0033694500
   0.0048758400   -0.0022275900   -0.0035094400
  -0.0020762400    0.0010385800   -0.0000463000
  -0.0023393200    0.0000073500   -0.0033821000
  -0.0020583100   -0.0009970800   -0.0066482800
   0.0046879000    0.0021850300   -0.0033692800
   0.0009617500    0.0000830400   -0.0034679800
   0.0006426800   -0.0020200400   -0.0002692100
  -0.0015881000   -0.0005095000   -0.0026035600
  -0.0015869900    0.0005043200   -0.0041521500
   0.0005922300    0.0019876100   -0.0064528000
   0.0005574900    0.0013438800   -0.0042243300
   0.0005710400   -0.0013324800   -0.0025459200
  -0.0002866900   -0.0012905100   -0.0028611000
  -0.0005639300   -0.0000072600   -0.0033843900
  -0.0002957400    0.0012733200   -0.0039025900
  -0.0003844200    0.0011286500   -0.0030987300
  -0.0004508800    0.0000034900   -0.0033876100
  -0.0003854400   -0.0011291200   -0.0036799200
   0.0006095800   -0.0007417100   -0.0036425000
   0.0006110300    0.0007283000   -0.0031349800
  -0.0004645500    0.0010989100   -0.0009258300
  -0.0015868700    0.0006631300   -0.0028034400
  -0.0015880900   -0.0006485000   -0.0039693000
  -0.0004846200   -0.0011036900   -0.0058491900
   0.0040900900   -0.0000100800   -0.0033851700

1    
  0.0000000000000000   0.0000000000000000   0.0300000000000000
   0.0000000000    0.0000000000   -0.5525194300
   0.0062428100    0.0092695600   -0.0169585800
   0.0009670900    0.0009814500   -0.0000937900
  -0.0009670900    0.0009814500   -0.0000937900
  -0.0062428100    0.0092695600   -0.0169585800
  -0.0111490800    0.0007716500   -0.0169585800
   0.0111490800    0.0007716500   -0.0169585800
   0.0017663300    0.0010197900   -0.0004359100
   0.0000000000    0.0003136800    0.0016376100
  -0.0017663300    0.0010197900   -0.0004359100
  -0.0013335000    0.0003468100   -0.0000937900
   0.0000000000    0.0028562600   -0.0004424200
   0.0013335000    0.0003468100   -0.0000937900
   0.0002716500   -0.0001568400    0.0016376100
  -0.0002716500   -0.0001568400    0.0016376100
  -0.0003664100   -0.0013282500   -0.0000937900
   0.0001525200    0.0000880600    0.0016424200
  -0.0001525200    0.0000880600    0.0016424200
   0.0003664100   -0.0013282500   -0.0000937900
   0.0000000000   -0.0020395800   -0.0004359100
  -0.0049062700   -0.0100412100   -0.0169585800
   0.0024735900   -0.0014281300   -0.0004424200
   0.0000000000   -0.0001761200    0.0016424200
  -0.0024735900   -0.0014281300   -0.0004424200
   0.0049062700   -0.0100412100   -0.0169585800
   0.0000000000    0.0000000000    0.0261478400
   0.0031504700    0.0008710400    0.0075972100
   0.0006163700    0.0002068400    0.0045632000
  -0.0006163700    0.0002068400    0.0045632000
  -0.0031504700    0.0008710400    0.0075972100
  -0.0023295800    0.0022928700    0.0075972100
   0.0023295800    0.0022928700    0.0075972100
   0.0008956000    0.0005170800    0.0047031200
   0.0000000000    0.0001878500    0.0040903200
  -0.0008956000    0.0005170800    0.0047031200
  -0.0004873100    0.0004303700    0.0045632000
   0.0000000000    0.0009751500    0.0047422100
   0.0004873100    0.0004303700    0.0045632000
   0.0001626800   -0.0000939300    0.0040903200
  -0.0001626800   -0.0000939300    0.0040903200
   0.0001290500   -0.0006372100    0.0045632000
   0.0000921600    0.0000532100    0.0041062200
  -0.0000921600    0.0000532100    0.0041062200
  -0.0001290500   -0.0006372100    0.0045632000
   0.0000000000   -0.0010341500    0.0047031200
   0.0008208900   -0.0031639100    0.0075972100
   0.0008445100   -0.0004875800    0.0047422100
   0.0000000000   -0.0001064100    0.0041062200
  -0.0008445100   -0.0004875800    0.0047422100
  -0.0008208900   -0.0031639100    0.0075972100
   0.0000000000    0.0000000000    0.0258576300
  -0.0065914100   -0.0031334700    0.0076244300
  -0.0012434300   -0.0006618400    0.0045998100
   0.0012434300   -0.0006618400    0.0045998100
   0.0065914100   -0.0031334700    0.0076244300
   0.0060093700   -0.0041416000    0.0076244300
  -0.0060093700   -0.0041416000    0.0076244300
  -0.0019942800   -0.0011514000    0.0047852900
   0.0000000000   -0.0004002200    0.0041376900
   0.0019942800   -0.0011514000    0.0047852900
   0.0011948900   -0.0007459300    0.0045998100
   0.0000000000   -0.0020195700    0.0047437500
  -0.0011948900   -0.0007459300    0.0045998100
  -0.0003466000    0.0002001100    0.0041376900
   0.0003466000    0.0002001100    0.0041376900
  -0.0000485500    0.0014077600    0.0045998100
  -0.0001509000   -0.0000871200    0.0041332000
   0.0001509000   -0.0000871200    0.0041332000
   0.0000485500    0.0014077600    0.0045998100
   0.0000000000    0.0023028000    0.0047852900
  -0.0005820400    0.0072750700    0.0076244300
  -0.0017490000    0.0010097800    0.0047437500
   0.0000000000    0.0001742400    0.0041332000
   0.0017490000    0.0010097800    0.0047437500
   0.0005820400    0.0072750700    0.0076244300
   0.0430195900   -0.0248373700    0.0353316400
   0.0034650100   -0.0015944800    0.0033043500
   0.0000000000   -0.0005568200    0.0029755600
  -0.0034650100   -0.0015944800    0.0033043500
  -0.0430195900   -0.0248373700    0.0353316400
   0.0000000000    0.0496747400    0.0353316400
   0.0059961500    0.0034618800    0.0043869100
   0.0009117500    0.0003655300    0.0029264800
  -0.0009117500    0.0003655300    0.0029264800
  -0.0059961500    0.0034618800    0.0043869100
  -0.0003516400    0.0037980300    0.0033043500
   0.0003516400    0.0037980300    0.0033043500
   0.0007724300    0.0006068400    0.0029264800
   0.0000000000    0.0000000000    0.0029563700
  -0.0007724300    0.0006068400    0.0029264800
   0.0004822200    0.0002784100    0.0029755600
   0.0000000000    0.0008969600    0.0029075000
  -0.0004822200    0.0002784100    0.0029755600
  -0.0001393200   -0.0009723600    0.0029264800
   0.0001393200   -0.0009723600    0.0029264800
   0.0031133700   -0.0022035500    0.0033043500
   0.0007767900   -0.0004484800    0.0029075000
  -0.0007767900   -0.0004484800    0.0029075000
  -0.0031133700   -0.0022035500    0.0033043500
   0.0000000000   -0.0069237600    0.0043869100
  -0.0007950200    0.0004590000    0.0112634600
  -0.0006539000    0.0004323500    0.0060126600
   0.0000000000    0.0001936300    0.0047817900
   0.0006539000    0.0004323500    0.0060126600
   0.0007950200    0.0004590000    0.0112634600
   0.0000000000   -0.0009180100    0.0112634600
  -0.0004834900   -0.0002791400    0.0066739500
  -0.0002173900   -0.0000150800    0.0048100800
   0.0002173900   -0.0000150800    0.0048100800
   0.0004834900   -0.0002791400    0.0066739500
  -0.0000474800   -0.0007824700    0.0060126600
   0.0000474800   -0.0007824700    0.0060126600
  -0.0001217600   -0.0001807200    0.0048100800
   0.0000000000    0.0000000000    0.0044262500
   0.0001217600   -0.0001807200    0.0048100800
  -0.0001676900   -0.0000968200    0.0047817900
   0.0000000000   -0.0002573100    0.0046978600
   0.0001676900   -0.0000968200    0.0047817900
   0.0000956300    0.0001958000    0.0048100800
  -0.0000956300    0.0001958000    0.0048100800
  -0.0007013800    0.0003501200    0.0060126600
  -0.0002228400    0.0001286600    0.0046978600
   0.0002228400    0.0001286600    0.0046978600
   0.0007013800    0.0003501200    0.0060126600
   0.0000000000    0.0005582800    0.0066739500
  -0.0583205000    0.0336713500    0.0345419200
  -0.0048734800    0.0030259200    0.0033596400
   0.0000000000    0.0007426700    0.0029801000
   0.0048734800    0.0030259200    0.0033596400
   0.0583205000    0.0336713500    0.0345419200
   0.0000000000   -0.0673427100    0.0345419200
  -0.0091105900   -0.0052600000    0.0044573100
  -0.0009933100   -0.0005010000    0.0029292800
   0.0009933100   -0.0005010000    0.0029292800
   0.0091105900   -0.0052600000    0.0044573100
  -0.0001837800   -0.0057335200    0.0033596400
   0.0001837800   -0.0057335200    0.0033596400
  -0.0009305300   -0.0006097300    0.0029292800
   0.0000000000    0.0000000000    0.0029508900
   0.0009305300   -0.0006097300    0.0029292800
  -0.0006431800   -0.0003713400    0.0029801000
   0.0000000000   -0.0008252600    0.0029070400
   0.0006431800   -0.0003713400    0.0029801000
   0.0000627800    0.0011107300    0.0029292800
  -0.0000627800    0.0011107300    0.0029292800
  -0.0050572700    0.0027076000    0.0033596400
  -0.0007146900    0.0004126300    0.0029070400
   0.0007146900    0.0004126300    0.0029070400
   0.0050572700    0.0027076000    0.0033596400
   0.0000000000    0.0105200100    0.0044573100
   0.0000000000    0.0000000000   -0.0455248400
  -0.0074856500    0.0004908100   -0.0050970500
  -0.0014206300   -0.0000539100   -0.0036623900
   0.0014206300   -0.0000539100   -0.0036623900
   0.0074856500    0.0004908100   -0.0050970500
   0.0033177800   -0.0067281700   -0.0050970500
  -0.0033177800   -0.0067281700   -0.0050970500
  -0.0016138600   -0.0009317600   -0.0036601100
   0.0000000000   -0.0002558000   -0.0034111700
   0.0016138600   -0.0009317600   -0.0036601100
   0.0007570000   -0.0012033500   -0.0036623900
   0.0000000000   -0.0019335400   -0.0036302600
  -0.0007570000   -0.0012033500   -0.0036623900
  -0.0002215300    0.0001279000   -0.0034111700
   0.0002215300    0.0001279000   -0.0034111700
  -0.0006636300    0.0012572500   -0.0036623900
  -0.0002202600   -0.0001271700   -0.0034002500
   0.0002202600   -0.0001271700   -0.0034002500
   0.0006636300    0.0012572500   -0.0036623900
   0.0000000000    0.0018635300   -0.0036601100
  -0.0041678700    0.0062373600   -0.0050970500
  -0.0016744900    0.0009667700   -0.0036302600
   0.0000000000    0.0002543300   -0.0034002500
   0.0016744900    0.0009667700   -0.0036302600
   0.0041678700    0.0062373600   -0.0050970500
   0.0000000000    0.0000000000   -0.0112959100
   0.0014169500    0.0005777900   -0.0085799600
   0.0003951600    0.0000565000   -0.0049849800
  -0.0003951600    0.0000565000   -0.0049849800
  -0.0014169500    0.0005777900   -0.0085799600
  -0.0012088500    0.0009382200   -0.0085799600
   0.0012088500    0.0009382200   -0.0085799600
   0.0005823000    0.0003361900   -0.0052673400
   0.0000000000    0.0000901900   -0.0044702900
  -0.0005823000    0.0003361900   -0.0052673400
  -0.0002465100    0.0003139700   -0.0049849800
   0.0000000000    0.0005796400   -0.0054052800
   0.0002465100    0.0003139700   -0.0049849800
   0.0000781000   -0.0000450900   -0.0044702900
  -0.0000781000   -0.0000450900   -0.0044702900
   0.0001486500   -0.0003704700   -0.0049849800
   0.0000728800    0.0000420800   -0.0044987800
  -0.0000728800    0.0000420800   -0.0044987800
  -0.0001486500   -0.0003704700   -0.0049849800
   0.0000000000   -0.0006723800   -0.0052673400
   0.0002081000   -0.0015160100   -0.0085799600
   0.0005019900   -0.0002898200   -0.0054052800
   0.0000000000   -0.0000841500   -0.0044987800
  -0.0005019900   -0.0002898200   -0.0054052800
  -0.0002081000   -0.0015160100   -0.0085799600
   0.0000000000    0.0000000000    0.2011118900
   0.0173971000   -0.0036387900    0.0040580900
   0.0022456600   -0.0002836900   -0.0016983500
  -0.0022456600   -0.0002836900   -0.0016983500
  -0.0173971000   -0.0036387900    0.0040580900
  -0.0055472700    0.0168857300    0.0040580900
   0.0055472700    0.0168857300    0.0040580900
   0.0019614000    0.0011324100   -0.0012364100
   0.0000000000    0.0002202900   -0.0022961100
  -0.0019614000    0.0011324100   -0.0012364100
  -0.0008771500    0.0020866500   -0.0016983500
   0.0000000000    0.0025971400   -0.0011567100
   0.0008771500    0.0020866500   -0.0016983500
   0.0001907800   -0.0001101500   -0.0022961100
  -0.0001907800   -0.0001101500   -0.0022961100
   0.0013685100   -0.0018029600   -0.0016983500
   0.0002489000    0.0001437000   -0.0022754700
  -0.0002489000    0.0001437000   -0.0022754700
  -0.0013685100   -0.0018029600   -0.0016983500
   0.0000000000   -0.0022648300   -0.0012364100
   0.0118498300   -0.0132469400    0.0040580900
   0.0022491900   -0.0012985700   -0.0011567100
   0.0000000000   -0.0002874100   -0.0022754700
  -0.0022491900   -0.0012985700   -0.0011567100
  -0.0118498300   -0.0132469400    0.0040580900
   0.0499152100   -0.0288185600    0.0846257900
  -0.0065012100   -0.0007928100    0.0002374500
   0.0000000000   -0.0001294800   -0.0016821900
   0.0065012100   -0.0007928100    0.0002374500
  -0.0499152100   -0.0288185600    0.0846257900
   0.0000000000    0.0576371200    0.0846257900
  -0.0069900700   -0.0040357200    0.0031803300
  -0.0010231800   -0.0004781800   -0.0016910000
   0.0010231800   -0.0004781800   -0.0016910000
   0.0069900700   -0.0040357200    0.0031803300
   0.0039372000   -0.0052338100    0.0002374500
  -0.0039372000   -0.0052338100    0.0002374500
  -0.0009257100   -0.0006470100   -0.0016910000
   0.0000000000    0.0000000000   -0.0022935800
   0.0009257100   -0.0006470100   -0.0016910000
   0.0001121400    0.0000647400   -0.0016821900
   0.0000000000   -0.0006407100   -0.0019296300
  -0.0001121400    0.0000647400   -0.0016821900
   0.0000974700    0.0011251900   -0.0016910000
  -0.0000974700    0.0011251900   -0.0016910000
  -0.0025640100    0.0060266200    0.0002374500
  -0.0005548700    0.0003203500   -0.0019296300
   0.0005548700    0.0003203500   -0.0019296300
   0.0025640100    0.0060266200    0.0002374500
   0.0000000000    0.0080714400    0.0031803300
  -0.0035085300    0.0020256500   -0.0125376200
  -0.0011794700    0.0001492100   -0.0058220700
   0.0000000000    0.0000332300   -0.0045654600
   0.0011794700    0.0001492100   -0.0058220700
   0.0035085300    0.0020256500   -0.0125376200
   0.0000000000   -0.0040513000   -0.0125376200
  -0.0012811400   -0.0007396700   -0.0065712400
  -0.0003392900   -0.0001744600   -0.0046256300
   0.0003392900   -0.0001744600   -0.0046256300
   0.0012811400   -0.0007396700   -0.0065712400
   0.0004605200   -0.0010960600   -0.0058220700
  -0.0004605200   -0.0010960600   -0.0058220700
  -0.0003207300   -0.0002066100   -0.0046256300
   0.0000000000    0.0000000000   -0.0042498100
   0.0003207300   -0.0002066100   -0.0046256300
  -0.0000287800   -0.0000166100   -0.0045654600
   0.0000000000   -0.0002654200   -0.0045041200
   0.0000287800   -0.0000166100   -0.0045654600
   0.0000185600    0.0003810700   -0.0046256300
  -0.0000185600    0.0003810700   -0.0046256300
  -0.0007189500    0.0009468500   -0.0058220700
  -0.0002298600    0.0001327100   -0.0045041200
   0.0002298600    0.0001327100   -0.0045041200
   0.0007189500    0.0009468500   -0.0058220700
   0.0000000000    0.0014793400   -0.0065712400
   0.0115832100   -0.0066875700   -0.0198140600
   0.0032759700   -0.0004667400   -0.0048331300
   0.0000000000   -0.0000927000   -0.0037980400
  -0.0032759700   -0.0004667400   -0.0048331300
  -0.0115832100   -0.0066875700   -0.0198140600
   0.0000000000    0.0133751400   -0.0198140600
   0.0036101200    0.0020843100   -0.0054828600
   0.0008895400    0.0004100600   -0.0037822600
  -0.0008895400    0.0004100600   -0.0037822600
  -0.0036101200    0.0020843100   -0.0054828600
  -0.0012337800    0.0030704400   -0.0048331300
   0.0012337800    0.0030704400   -0.0048331300
   0.0007998900    0.0005653300   -0.0037822600
   0.0000000000    0.0000000000   -0.0035907300
  -0.0007998900    0.0005653300   -0.0037822600
   0.0000802800    0.0000463500   -0.0037980400
   0.0000000000    0.0006668500   -0.0036738100
  -0.0000802800    0.0000463500   -0.0037980400
  -0.0000896500   -0.0009753900   -0.0037822600
   0.0000896500   -0.0009753900   -0.0037822600
   0.0020421900   -0.0026037000   -0.0048331300
   0.0005775000   -0.0003334200   -0.0036738100
  -0.0005775000   -0.0003334200   -0.0036738100
  -0.0020421900   -0.0026037000   -0.0048331300
   0.0000000000   -0.0041686100   -0.0054828600

1    
  0.0000000000000000   0.0000000000000000  -0.0300000000000000
   0.0000000000    0.0000000000    0.6196409800
  -0.0070719500   -0.0093800300    0.0240037800
  -0.0010086800   -0.0010135100    0.0068991400
   0.0010086800   -0.0010135100    0.0068991400
   0.0070719500   -0.0093800300    0.0240037800
   0.0116593100   -0.0014344700    0.0240037800
  -0.0116593100   -0.0014344700    0.0240037800
  -0.0018367100   -0.0010604300    0.0072685500
   0.0000000000   -0.0003239500    0.0051365700
   0.0018367100   -0.0010604300    0.0072685500
   0.0013820700   -0.0003667900    0.0068991400
   0.0000000000   -0.0029641100    0.0072610700
  -0.0013820700   -0.0003667900    0.0068991400
  -0.0002805500    0.0001619800    0.0051365700
   0.0002805500    0.0001619800    0.0051365700
   0.0003733900    0.0013803000    0.0068991400
  -0.0001537100   -0.0000887400    0.0051443200
   0.0001537100   -0.0000887400    0.0051443200
  -0.0003733900    0.0013803000    0.0068991400
   0.0000000000    0.0021208500    0.0072685500