# epsilon and Z* of atoms 1 2
   2.56345522    0.00000000   -0.00000000    0.00000000    2.56345522   -0.00000000    0.00000000   -0.00000000    2.56345522
   1.09044426    0.00000000   -0.00000000    0.00000000    1.09044426   -0.00000000    0.00000000   -0.00000000    1.09044426
  -1.09044426   -0.00000000    0.00000000   -0.00000000   -1.09044426    0.00000000   -0.00000000    0.00000000   -1.09044426
