<?xml version="1.0" encoding="ISO-8859-1"?>
<modeling>
 <generator>
  <i name="program" type="string">vasp </i>
  <i name="version" type="string">6.3.2  </i>
  <i name="subversion" type="string">27Jun22 (build Oct 19 2022 10:03:02) complex                          parallel </i>
  <i name="platform" type="string">LinuxIFC </i>
  <i name="date" type="string">2022 10 21 </i>
  <i name="time" type="string">07:40:26 </i>
 </generator>
 <incar>
  <i type="string" name="PREC">Accurate</i>
  <i type="int" name="IALGO">    38</i>
  <i type="logical" name="ADDGRID"> T  </i>
  <i type="int" name="NELMIN">     5</i>
  <i type="int" name="IBRION">    -1</i>
  <i name="EDIFF">      0.00000001</i>
  <i name="ENCUT">    300.00000000</i>
  <i type="logical" name="LREAL"> F  </i>
  <i type="int" name="ISMEAR">     0</i>
  <i name="SIGMA">      0.05000000</i>
  <i type="logical" name="LWAVE"> F  </i>
  <i type="logical" name="LCHARG"> F  </i>
  <i type="string" name="GGA">PS</i>
 </incar>
 <primitive_cell>
  <structure name="primitive_cell" >
   <crystal>
    <varray name="basis" >
     <v>      21.73424012       0.00000000       0.00000000 </v>
     <v>       0.00000000      21.73424012       0.00000000 </v>
     <v>       0.00000000       0.00000000      21.73424012 </v>
    </varray>
    <i name="volume">  10266.75935278 </i>
    <varray name="rec_basis" >
     <v>       0.04601035       0.00000000       0.00000000 </v>
     <v>       0.00000000       0.04601035       0.00000000 </v>
     <v>       0.00000000       0.00000000       0.04601035 </v>
    </varray>
   </crystal>
   <varray name="positions" >
    <v>       0.22013031       0.21875000       0.21875000 </v>
    <v>       0.46875000       0.21875000       0.21875000 </v>
    <v>       0.71875000       0.21875000       0.21875000 </v>
    <v>       0.96875000       0.21875000       0.21875000 </v>
    <v>       0.21875000       0.46875000       0.21875000 </v>
    <v>       0.46875000       0.46875000       0.21875000 </v>
    <v>       0.71875000       0.46875000       0.21875000 </v>
    <v>       0.96875000       0.46875000       0.21875000 </v>
    <v>       0.21875000       0.71875000       0.21875000 </v>
    <v>       0.46875000       0.71875000       0.21875000 </v>
    <v>       0.71875000       0.71875000       0.21875000 </v>
    <v>       0.96875000       0.71875000       0.21875000 </v>
    <v>       0.21875000       0.96875000       0.21875000 </v>
    <v>       0.46875000       0.96875000       0.21875000 </v>
    <v>       0.71875000       0.96875000       0.21875000 </v>
    <v>       0.96875000       0.96875000       0.21875000 </v>
    <v>       0.21875000       0.21875000       0.46875000 </v>
    <v>       0.46875000       0.21875000       0.46875000 </v>
    <v>       0.71875000       0.21875000       0.46875000 </v>
    <v>       0.96875000       0.21875000       0.46875000 </v>
    <v>       0.21875000       0.46875000       0.46875000 </v>
    <v>       0.46875000       0.46875000       0.46875000 </v>
    <v>       0.71875000       0.46875000       0.46875000 </v>
    <v>       0.96875000       0.46875000       0.46875000 </v>
    <v>       0.21875000       0.71875000       0.46875000 </v>
    <v>       0.46875000       0.71875000       0.46875000 </v>
    <v>       0.71875000       0.71875000       0.46875000 </v>
    <v>       0.96875000       0.71875000       0.46875000 </v>
    <v>       0.21875000       0.96875000       0.46875000 </v>
    <v>       0.46875000       0.96875000       0.46875000 </v>
    <v>       0.71875000       0.96875000       0.46875000 </v>
    <v>       0.96875000       0.96875000       0.46875000 </v>
    <v>       0.21875000       0.21875000       0.71875000 </v>
    <v>       0.46875000       0.21875000       0.71875000 </v>
    <v>       0.71875000       0.21875000       0.71875000 </v>
    <v>       0.96875000       0.21875000       0.71875000 </v>
    <v>       0.21875000       0.46875000       0.71875000 </v>
    <v>       0.46875000       0.46875000       0.71875000 </v>
    <v>       0.71875000       0.46875000       0.71875000 </v>
    <v>       0.96875000       0.46875000       0.71875000 </v>
    <v>       0.21875000       0.71875000       0.71875000 </v>
    <v>       0.46875000       0.71875000       0.71875000 </v>
    <v>       0.71875000       0.71875000       0.71875000 </v>
    <v>       0.96875000       0.71875000       0.71875000 </v>
    <v>       0.21875000       0.96875000       0.71875000 </v>
    <v>       0.46875000       0.96875000       0.71875000 </v>
    <v>       0.71875000       0.96875000       0.71875000 </v>
    <v>       0.96875000       0.96875000       0.71875000 </v>
    <v>       0.21875000       0.21875000       0.96875000 </v>
    <v>       0.46875000       0.21875000       0.96875000 </v>
    <v>       0.71875000       0.21875000       0.96875000 </v>
    <v>       0.96875000       0.21875000       0.96875000 </v>
    <v>       0.21875000       0.46875000       0.96875000 </v>
    <v>       0.46875000       0.46875000       0.96875000 </v>
    <v>       0.71875000       0.46875000       0.96875000 </v>
    <v>       0.96875000       0.46875000       0.96875000 </v>
    <v>       0.21875000       0.71875000       0.96875000 </v>
    <v>       0.46875000       0.71875000       0.96875000 </v>
    <v>       0.71875000       0.71875000       0.96875000 </v>
    <v>       0.96875000       0.71875000       0.96875000 </v>
    <v>       0.21875000       0.96875000       0.96875000 </v>
    <v>       0.46875000       0.96875000       0.96875000 </v>
    <v>       0.71875000       0.96875000       0.96875000 </v>
    <v>       0.96875000       0.96875000       0.96875000 </v>
    <v>       0.21875000       0.09375000       0.09375000 </v>
    <v>       0.46875000       0.09375000       0.09375000 </v>
    <v>       0.71875000       0.09375000       0.09375000 </v>
    <v>       0.96875000       0.09375000       0.09375000 </v>
    <v>       0.21875000       0.34375000       0.09375000 </v>
    <v>       0.46875000       0.34375000       0.09375000 </v>
    <v>       0.71875000       0.34375000       0.09375000 </v>
    <v>       0.96875000       0.34375000       0.09375000 </v>
    <v>       0.21875000       0.59375000       0.09375000 </v>
    <v>       0.46875000       0.59375000       0.09375000 </v>
    <v>       0.71875000       0.59375000       0.09375000 </v>
    <v>       0.96875000       0.59375000       0.09375000 </v>
    <v>       0.21875000       0.84375000       0.09375000 </v>
    <v>       0.46875000       0.84375000       0.09375000 </v>
    <v>       0.71875000       0.84375000       0.09375000 </v>
    <v>       0.96875000       0.84375000       0.09375000 </v>
    <v>       0.21875000       0.09375000       0.34375000 </v>
    <v>       0.46875000       0.09375000       0.34375000 </v>
    <v>       0.71875000       0.09375000       0.34375000 </v>
    <v>       0.96875000       0.09375000       0.34375000 </v>
    <v>       0.21875000       0.34375000       0.34375000 </v>
    <v>       0.46875000       0.34375000       0.34375000 </v>
    <v>       0.71875000       0.34375000       0.34375000 </v>
    <v>       0.96875000       0.34375000       0.34375000 </v>
    <v>       0.21875000       0.59375000       0.34375000 </v>
    <v>       0.46875000       0.59375000       0.34375000 </v>
    <v>       0.71875000       0.59375000       0.34375000 </v>
    <v>       0.96875000       0.59375000       0.34375000 </v>
    <v>       0.21875000       0.84375000       0.34375000 </v>
    <v>       0.46875000       0.84375000       0.34375000 </v>
    <v>       0.71875000       0.84375000       0.34375000 </v>
    <v>       0.96875000       0.84375000       0.34375000 </v>
    <v>       0.21875000       0.09375000       0.59375000 </v>
    <v>       0.46875000       0.09375000       0.59375000 </v>
    <v>       0.71875000       0.09375000       0.59375000 </v>
    <v>       0.96875000       0.09375000       0.59375000 </v>
    <v>       0.21875000       0.34375000       0.59375000 </v>
    <v>       0.46875000       0.34375000       0.59375000 </v>
    <v>       0.71875000       0.34375000       0.59375000 </v>
    <v>       0.96875000       0.34375000       0.59375000 </v>
    <v>       0.21875000       0.59375000       0.59375000 </v>
    <v>       0.46875000       0.59375000       0.59375000 </v>
    <v>       0.71875000       0.59375000       0.59375000 </v>
    <v>       0.96875000       0.59375000       0.59375000 </v>
    <v>       0.21875000       0.84375000       0.59375000 </v>
    <v>       0.46875000       0.84375000       0.59375000 </v>
    <v>       0.71875000       0.84375000       0.59375000 </v>
    <v>       0.96875000       0.84375000       0.59375000 </v>
    <v>       0.21875000       0.09375000       0.84375000 </v>
    <v>       0.46875000       0.09375000       0.84375000 </v>
    <v>       0.71875000       0.09375000       0.84375000 </v>
    <v>       0.96875000       0.09375000       0.84375000 </v>
    <v>       0.21875000       0.34375000       0.84375000 </v>
    <v>       0.46875000       0.34375000       0.84375000 </v>
    <v>       0.71875000       0.34375000       0.84375000 </v>
    <v>       0.96875000       0.34375000       0.84375000 </v>
    <v>       0.21875000       0.59375000       0.84375000 </v>
    <v>       0.46875000       0.59375000       0.84375000 </v>
    <v>       0.71875000       0.59375000       0.84375000 </v>
    <v>       0.96875000       0.59375000       0.84375000 </v>
    <v>       0.21875000       0.84375000       0.84375000 </v>
    <v>       0.46875000       0.84375000       0.84375000 </v>
    <v>       0.71875000       0.84375000       0.84375000 </v>
    <v>       0.96875000       0.84375000       0.84375000 </v>
    <v>       0.09375000       0.21875000       0.09375000 </v>
    <v>       0.34375000       0.21875000       0.09375000 </v>
    <v>       0.59375000       0.21875000       0.09375000 </v>
    <v>       0.84375000       0.21875000       0.09375000 </v>
    <v>       0.09375000       0.46875000       0.09375000 </v>
    <v>       0.34375000       0.46875000       0.09375000 </v>
    <v>       0.59375000       0.46875000       0.09375000 </v>
    <v>       0.84375000       0.46875000       0.09375000 </v>
    <v>       0.09375000       0.71875000       0.09375000 </v>
    <v>       0.34375000       0.71875000       0.09375000 </v>
    <v>       0.59375000       0.71875000       0.09375000 </v>
    <v>       0.84375000       0.71875000       0.09375000 </v>
    <v>       0.09375000       0.96875000       0.09375000 </v>
    <v>       0.34375000       0.96875000       0.09375000 </v>
    <v>       0.59375000       0.96875000       0.09375000 </v>
    <v>       0.84375000       0.96875000       0.09375000 </v>
    <v>       0.09375000       0.21875000       0.34375000 </v>
    <v>       0.34375000       0.21875000       0.34375000 </v>
    <v>       0.59375000       0.21875000       0.34375000 </v>
    <v>       0.84375000       0.21875000       0.34375000 </v>
    <v>       0.09375000       0.46875000       0.34375000 </v>
    <v>       0.34375000       0.46875000       0.34375000 </v>
    <v>       0.59375000       0.46875000       0.34375000 </v>
    <v>       0.84375000       0.46875000       0.34375000 </v>
    <v>       0.09375000       0.71875000       0.34375000 </v>
    <v>       0.34375000       0.71875000       0.34375000 </v>
    <v>       0.59375000       0.71875000       0.34375000 </v>
    <v>       0.84375000       0.71875000       0.34375000 </v>
    <v>       0.09375000       0.96875000       0.34375000 </v>
    <v>       0.34375000       0.96875000       0.34375000 </v>
    <v>       0.59375000       0.96875000       0.34375000 </v>
    <v>       0.84375000       0.96875000       0.34375000 </v>
    <v>       0.09375000       0.21875000       0.59375000 </v>
    <v>       0.34375000       0.21875000       0.59375000 </v>
    <v>       0.59375000       0.21875000       0.59375000 </v>
    <v>       0.84375000       0.21875000       0.59375000 </v>
    <v>       0.09375000       0.46875000       0.59375000 </v>
    <v>       0.34375000       0.46875000       0.59375000 </v>
    <v>       0.59375000       0.46875000       0.59375000 </v>
    <v>       0.84375000       0.46875000       0.59375000 </v>
    <v>       0.09375000       0.71875000       0.59375000 </v>
    <v>       0.34375000       0.71875000       0.59375000 </v>
    <v>       0.59375000       0.71875000       0.59375000 </v>
    <v>       0.84375000       0.71875000       0.59375000 </v>
    <v>       0.09375000       0.96875000       0.59375000 </v>
    <v>       0.34375000       0.96875000       0.59375000 </v>
    <v>       0.59375000       0.96875000       0.59375000 </v>
    <v>       0.84375000       0.96875000       0.59375000 </v>
    <v>       0.09375000       0.21875000       0.84375000 </v>
    <v>       0.34375000       0.21875000       0.84375000 </v>
    <v>       0.59375000       0.21875000       0.84375000 </v>
    <v>       0.84375000       0.21875000       0.84375000 </v>
    <v>       0.09375000       0.46875000       0.84375000 </v>
    <v>       0.34375000       0.46875000       0.84375000 </v>
    <v>       0.59375000       0.46875000       0.84375000 </v>
    <v>       0.84375000       0.46875000       0.84375000 </v>
    <v>       0.09375000       0.71875000       0.84375000 </v>
    <v>       0.34375000       0.71875000       0.84375000 </v>
    <v>       0.59375000       0.71875000       0.84375000 </v>
    <v>       0.84375000       0.71875000       0.84375000 </v>
    <v>       0.09375000       0.96875000       0.84375000 </v>
    <v>       0.34375000       0.96875000       0.84375000 </v>
    <v>       0.59375000       0.96875000       0.84375000 </v>
    <v>       0.84375000       0.96875000       0.84375000 </v>
    <v>       0.09375000       0.09375000       0.21875000 </v>
    <v>       0.34375000       0.09375000       0.21875000 </v>
    <v>       0.59375000       0.09375000       0.21875000 </v>
    <v>       0.84375000       0.09375000       0.21875000 </v>
    <v>       0.09375000       0.34375000       0.21875000 </v>
    <v>       0.34375000       0.34375000       0.21875000 </v>
    <v>       0.59375000       0.34375000       0.21875000 </v>
    <v>       0.84375000       0.34375000       0.21875000 </v>
    <v>       0.09375000       0.59375000       0.21875000 </v>
    <v>       0.34375000       0.59375000       0.21875000 </v>
    <v>       0.59375000       0.59375000       0.21875000 </v>
    <v>       0.84375000       0.59375000       0.21875000 </v>
    <v>       0.09375000       0.84375000       0.21875000 </v>
    <v>       0.34375000       0.84375000       0.21875000 </v>
    <v>       0.59375000       0.84375000       0.21875000 </v>
    <v>       0.84375000       0.84375000       0.21875000 </v>
    <v>       0.09375000       0.09375000       0.46875000 </v>
    <v>       0.34375000       0.09375000       0.46875000 </v>
    <v>       0.59375000       0.09375000       0.46875000 </v>
    <v>       0.84375000       0.09375000       0.46875000 </v>
    <v>       0.09375000       0.34375000       0.46875000 </v>
    <v>       0.34375000       0.34375000       0.46875000 </v>
    <v>       0.59375000       0.34375000       0.46875000 </v>
    <v>       0.84375000       0.34375000       0.46875000 </v>
    <v>       0.09375000       0.59375000       0.46875000 </v>
    <v>       0.34375000       0.59375000       0.46875000 </v>
    <v>       0.59375000       0.59375000       0.46875000 </v>
    <v>       0.84375000       0.59375000       0.46875000 </v>
    <v>       0.09375000       0.84375000       0.46875000 </v>
    <v>       0.34375000       0.84375000       0.46875000 </v>
    <v>       0.59375000       0.84375000       0.46875000 </v>
    <v>       0.84375000       0.84375000       0.46875000 </v>
    <v>       0.09375000       0.09375000       0.71875000 </v>
    <v>       0.34375000       0.09375000       0.71875000 </v>
    <v>       0.59375000       0.09375000       0.71875000 </v>
    <v>       0.84375000       0.09375000       0.71875000 </v>
    <v>       0.09375000       0.34375000       0.71875000 </v>
    <v>       0.34375000       0.34375000       0.71875000 </v>
    <v>       0.59375000       0.34375000       0.71875000 </v>
    <v>       0.84375000       0.34375000       0.71875000 </v>
    <v>       0.09375000       0.59375000       0.71875000 </v>
    <v>       0.34375000       0.59375000       0.71875000 </v>
    <v>       0.59375000       0.59375000       0.71875000 </v>
    <v>       0.84375000       0.59375000       0.71875000 </v>
    <v>       0.09375000       0.84375000       0.71875000 </v>
    <v>       0.34375000       0.84375000       0.71875000 </v>
    <v>       0.59375000       0.84375000       0.71875000 </v>
    <v>       0.84375000       0.84375000       0.71875000 </v>
    <v>       0.09375000       0.09375000       0.96875000 </v>
    <v>       0.34375000       0.09375000       0.96875000 </v>
    <v>       0.59375000       0.09375000       0.96875000 </v>
    <v>       0.84375000       0.09375000       0.96875000 </v>
    <v>       0.09375000       0.34375000       0.96875000 </v>
    <v>       0.34375000       0.34375000       0.96875000 </v>
    <v>       0.59375000       0.34375000       0.96875000 </v>
    <v>       0.84375000       0.34375000       0.96875000 </v>
    <v>       0.09375000       0.59375000       0.96875000 </v>
    <v>       0.34375000       0.59375000       0.96875000 </v>
    <v>       0.59375000       0.59375000       0.96875000 </v>
    <v>       0.84375000       0.59375000       0.96875000 </v>
    <v>       0.09375000       0.84375000       0.96875000 </v>
    <v>       0.34375000       0.84375000       0.96875000 </v>
    <v>       0.59375000       0.84375000       0.96875000 </v>
    <v>       0.84375000       0.84375000       0.96875000 </v>
    <v>       0.03125000       0.03125000       0.03125000 </v>
    <v>       0.28125000       0.03125000       0.03125000 </v>
    <v>       0.53125000       0.03125000       0.03125000 </v>
    <v>       0.78125000       0.03125000       0.03125000 </v>
    <v>       0.03125000       0.28125000       0.03125000 </v>
    <v>       0.28125000       0.28125000       0.03125000 </v>
    <v>       0.53125000       0.28125000       0.03125000 </v>
    <v>       0.78125000       0.28125000       0.03125000 </v>
    <v>       0.03125000       0.53125000       0.03125000 </v>
    <v>       0.28125000       0.53125000       0.03125000 </v>
    <v>       0.53125000       0.53125000       0.03125000 </v>
    <v>       0.78125000       0.53125000       0.03125000 </v>
    <v>       0.03125000       0.78125000       0.03125000 </v>
    <v>       0.28125000       0.78125000       0.03125000 </v>
    <v>       0.53125000       0.78125000       0.03125000 </v>
    <v>       0.78125000       0.78125000       0.03125000 </v>
    <v>       0.03125000       0.03125000       0.28125000 </v>
    <v>       0.28125000       0.03125000       0.28125000 </v>
    <v>       0.53125000       0.03125000       0.28125000 </v>
    <v>       0.78125000       0.03125000       0.28125000 </v>
    <v>       0.03125000       0.28125000       0.28125000 </v>
    <v>       0.28125000       0.28125000       0.28125000 </v>
    <v>       0.53125000       0.28125000       0.28125000 </v>
    <v>       0.78125000       0.28125000       0.28125000 </v>
    <v>       0.03125000       0.53125000       0.28125000 </v>
    <v>       0.28125000       0.53125000       0.28125000 </v>
    <v>       0.53125000       0.53125000       0.28125000 </v>
    <v>       0.78125000       0.53125000       0.28125000 </v>
    <v>       0.03125000       0.78125000       0.28125000 </v>
    <v>       0.28125000       0.78125000       0.28125000 </v>
    <v>       0.53125000       0.78125000       0.28125000 </v>
    <v>       0.78125000       0.78125000       0.28125000 </v>
    <v>       0.03125000       0.03125000       0.53125000 </v>
    <v>       0.28125000       0.03125000       0.53125000 </v>
    <v>       0.53125000       0.03125000       0.53125000 </v>
    <v>       0.78125000       0.03125000       0.53125000 </v>
    <v>       0.03125000       0.28125000       0.53125000 </v>
    <v>       0.28125000       0.28125000       0.53125000 </v>
    <v>       0.53125000       0.28125000       0.53125000 </v>
    <v>       0.78125000       0.28125000       0.53125000 </v>
    <v>       0.03125000       0.53125000       0.53125000 </v>
    <v>       0.28125000       0.53125000       0.53125000 </v>
    <v>       0.53125000       0.53125000       0.53125000 </v>
    <v>       0.78125000       0.53125000       0.53125000 </v>
    <v>       0.03125000       0.78125000       0.53125000 </v>
    <v>       0.28125000       0.78125000       0.53125000 </v>
    <v>       0.53125000       0.78125000       0.53125000 </v>
    <v>       0.78125000       0.78125000       0.53125000 </v>
    <v>       0.03125000       0.03125000       0.78125000 </v>
    <v>       0.28125000       0.03125000       0.78125000 </v>
    <v>       0.53125000       0.03125000       0.78125000 </v>
    <v>       0.78125000       0.03125000       0.78125000 </v>
    <v>       0.03125000       0.28125000       0.78125000 </v>
    <v>       0.28125000       0.28125000       0.78125000 </v>
    <v>       0.53125000       0.28125000       0.78125000 </v>
    <v>       0.78125000       0.28125000       0.78125000 </v>
    <v>       0.03125000       0.53125000       0.78125000 </v>
    <v>       0.28125000       0.53125000       0.78125000 </v>
    <v>       0.53125000       0.53125000       0.78125000 </v>
    <v>       0.78125000       0.53125000       0.78125000 </v>
    <v>       0.03125000       0.78125000       0.78125000 </v>
    <v>       0.28125000       0.78125000       0.78125000 </v>
    <v>       0.53125000       0.78125000       0.78125000 </v>
    <v>       0.78125000       0.78125000       0.78125000 </v>
    <v>       0.03125000       0.15625000       0.15625000 </v>
    <v>       0.28125000       0.15625000       0.15625000 </v>
    <v>       0.53125000       0.15625000       0.15625000 </v>
    <v>       0.78125000       0.15625000       0.15625000 </v>
    <v>       0.03125000       0.40625000       0.15625000 </v>
    <v>       0.28125000       0.40625000       0.15625000 </v>
    <v>       0.53125000       0.40625000       0.15625000 </v>
    <v>       0.78125000       0.40625000       0.15625000 </v>
    <v>       0.03125000       0.65625000       0.15625000 </v>
    <v>       0.28125000       0.65625000       0.15625000 </v>
    <v>       0.53125000       0.65625000       0.15625000 </v>
    <v>       0.78125000       0.65625000       0.15625000 </v>
    <v>       0.03125000       0.90625000       0.15625000 </v>
    <v>       0.28125000       0.90625000       0.15625000 </v>
    <v>       0.53125000       0.90625000       0.15625000 </v>
    <v>       0.78125000       0.90625000       0.15625000 </v>
    <v>       0.03125000       0.15625000       0.40625000 </v>
    <v>       0.28125000       0.15625000       0.40625000 </v>
    <v>       0.53125000       0.15625000       0.40625000 </v>
    <v>       0.78125000       0.15625000       0.40625000 </v>
    <v>       0.03125000       0.40625000       0.40625000 </v>
    <v>       0.28125000       0.40625000       0.40625000 </v>
    <v>       0.53125000       0.40625000       0.40625000 </v>
    <v>       0.78125000       0.40625000       0.40625000 </v>
    <v>       0.03125000       0.65625000       0.40625000 </v>
    <v>       0.28125000       0.65625000       0.40625000 </v>
    <v>       0.53125000       0.65625000       0.40625000 </v>
    <v>       0.78125000       0.65625000       0.40625000 </v>
    <v>       0.03125000       0.90625000       0.40625000 </v>
    <v>       0.28125000       0.90625000       0.40625000 </v>
    <v>       0.53125000       0.90625000       0.40625000 </v>
    <v>       0.78125000       0.90625000       0.40625000 </v>
    <v>       0.03125000       0.15625000       0.65625000 </v>
    <v>       0.28125000       0.15625000       0.65625000 </v>
    <v>       0.53125000       0.15625000       0.65625000 </v>
    <v>       0.78125000       0.15625000       0.65625000 </v>
    <v>       0.03125000       0.40625000       0.65625000 </v>
    <v>       0.28125000       0.40625000       0.65625000 </v>
    <v>       0.53125000       0.40625000       0.65625000 </v>
    <v>       0.78125000       0.40625000       0.65625000 </v>
    <v>       0.03125000       0.65625000       0.65625000 </v>
    <v>       0.28125000       0.65625000       0.65625000 </v>
    <v>       0.53125000       0.65625000       0.65625000 </v>
    <v>       0.78125000       0.65625000       0.65625000 </v>
    <v>       0.03125000       0.90625000       0.65625000 </v>
    <v>       0.28125000       0.90625000       0.65625000 </v>
    <v>       0.53125000       0.90625000       0.65625000 </v>
    <v>       0.78125000       0.90625000       0.65625000 </v>
    <v>       0.03125000       0.15625000       0.90625000 </v>
    <v>       0.28125000       0.15625000       0.90625000 </v>
    <v>       0.53125000       0.15625000       0.90625000 </v>
    <v>       0.78125000       0.15625000       0.90625000 </v>
    <v>       0.03125000       0.40625000       0.90625000 </v>
    <v>       0.28125000       0.40625000       0.90625000 </v>
    <v>       0.53125000       0.40625000       0.90625000 </v>
    <v>       0.78125000       0.40625000       0.90625000 </v>
    <v>       0.03125000       0.65625000       0.90625000 </v>
    <v>       0.28125000       0.65625000       0.90625000 </v>
    <v>       0.53125000       0.65625000       0.90625000 </v>
    <v>       0.78125000       0.65625000       0.90625000 </v>
    <v>       0.03125000       0.90625000       0.90625000 </v>
    <v>       0.28125000       0.90625000       0.90625000 </v>
    <v>       0.53125000       0.90625000       0.90625000 </v>
    <v>       0.78125000       0.90625000       0.90625000 </v>
    <v>       0.15625000       0.03125000       0.15625000 </v>
    <v>       0.40625000       0.03125000       0.15625000 </v>
    <v>       0.65625000       0.03125000       0.15625000 </v>
    <v>       0.90625000       0.03125000       0.15625000 </v>
    <v>       0.15625000       0.28125000       0.15625000 </v>
    <v>       0.40625000       0.28125000       0.15625000 </v>
    <v>       0.65625000       0.28125000       0.15625000 </v>
    <v>       0.90625000       0.28125000       0.15625000 </v>
    <v>       0.15625000       0.53125000       0.15625000 </v>
    <v>       0.40625000       0.53125000       0.15625000 </v>
    <v>       0.65625000       0.53125000       0.15625000 </v>
    <v>       0.90625000       0.53125000       0.15625000 </v>
    <v>       0.15625000       0.78125000       0.15625000 </v>
    <v>       0.40625000       0.78125000       0.15625000 </v>
    <v>       0.65625000       0.78125000       0.15625000 </v>
    <v>       0.90625000       0.78125000       0.15625000 </v>
    <v>       0.15625000       0.03125000       0.40625000 </v>
    <v>       0.40625000       0.03125000       0.40625000 </v>
    <v>       0.65625000       0.03125000       0.40625000 </v>
    <v>       0.90625000       0.03125000       0.40625000 </v>
    <v>       0.15625000       0.28125000       0.40625000 </v>
    <v>       0.40625000       0.28125000       0.40625000 </v>
    <v>       0.65625000       0.28125000       0.40625000 </v>
    <v>       0.90625000       0.28125000       0.40625000 </v>
    <v>       0.15625000       0.53125000       0.40625000 </v>
    <v>       0.40625000       0.53125000       0.40625000 </v>
    <v>       0.65625000       0.53125000       0.40625000 </v>
    <v>       0.90625000       0.53125000       0.40625000 </v>
    <v>       0.15625000       0.78125000       0.40625000 </v>
    <v>       0.40625000       0.78125000       0.40625000 </v>
    <v>       0.65625000       0.78125000       0.40625000 </v>
    <v>       0.90625000       0.78125000       0.40625000 </v>
    <v>       0.15625000       0.03125000       0.65625000 </v>
    <v>       0.40625000       0.03125000       0.65625000 </v>
    <v>       0.65625000       0.03125000       0.65625000 </v>
    <v>       0.90625000       0.03125000       0.65625000 </v>
    <v>       0.15625000       0.28125000       0.65625000 </v>
    <v>       0.40625000       0.28125000       0.65625000 </v>
    <v>       0.65625000       0.28125000       0.65625000 </v>
    <v>       0.90625000       0.28125000       0.65625000 </v>
    <v>       0.15625000       0.53125000       0.65625000 </v>
    <v>       0.40625000       0.53125000       0.65625000 </v>
    <v>       0.65625000       0.53125000       0.65625000 </v>
    <v>       0.90625000       0.53125000       0.65625000 </v>
    <v>       0.15625000       0.78125000       0.65625000 </v>
    <v>       0.40625000       0.78125000       0.65625000 </v>
    <v>       0.65625000       0.78125000       0.65625000 </v>
    <v>       0.90625000       0.78125000       0.65625000 </v>
    <v>       0.15625000       0.03125000       0.90625000 </v>
    <v>       0.40625000       0.03125000       0.90625000 </v>
    <v>       0.65625000       0.03125000       0.90625000 </v>
    <v>       0.90625000       0.03125000       0.90625000 </v>
    <v>       0.15625000       0.28125000       0.90625000 </v>
    <v>       0.40625000       0.28125000       0.90625000 </v>
    <v>       0.65625000       0.28125000       0.90625000 </v>
    <v>       0.90625000       0.28125000       0.90625000 </v>
    <v>       0.15625000       0.53125000       0.90625000 </v>
    <v>       0.40625000       0.53125000       0.90625000 </v>
    <v>       0.65625000       0.53125000       0.90625000 </v>
    <v>       0.90625000       0.53125000       0.90625000 </v>
    <v>       0.15625000       0.78125000       0.90625000 </v>
    <v>       0.40625000       0.78125000       0.90625000 </v>
    <v>       0.65625000       0.78125000       0.90625000 </v>
    <v>       0.90625000       0.78125000       0.90625000 </v>
    <v>       0.15625000       0.15625000       0.03125000 </v>
    <v>       0.40625000       0.15625000       0.03125000 </v>
    <v>       0.65625000       0.15625000       0.03125000 </v>
    <v>       0.90625000       0.15625000       0.03125000 </v>
    <v>       0.15625000       0.40625000       0.03125000 </v>
    <v>       0.40625000       0.40625000       0.03125000 </v>
    <v>       0.65625000       0.40625000       0.03125000 </v>
    <v>       0.90625000       0.40625000       0.03125000 </v>
    <v>       0.15625000       0.65625000       0.03125000 </v>
    <v>       0.40625000       0.65625000       0.03125000 </v>
    <v>       0.65625000       0.65625000       0.03125000 </v>
    <v>       0.90625000       0.65625000       0.03125000 </v>
    <v>       0.15625000       0.90625000       0.03125000 </v>
    <v>       0.40625000       0.90625000       0.03125000 </v>
    <v>       0.65625000       0.90625000       0.03125000 </v>
    <v>       0.90625000       0.90625000       0.03125000 </v>
    <v>       0.15625000       0.15625000       0.28125000 </v>
    <v>       0.40625000       0.15625000       0.28125000 </v>
    <v>       0.65625000       0.15625000       0.28125000 </v>
    <v>       0.90625000       0.15625000       0.28125000 </v>
    <v>       0.15625000       0.40625000       0.28125000 </v>
    <v>       0.40625000       0.40625000       0.28125000 </v>
    <v>       0.65625000       0.40625000       0.28125000 </v>
    <v>       0.90625000       0.40625000       0.28125000 </v>
    <v>       0.15625000       0.65625000       0.28125000 </v>
    <v>       0.40625000       0.65625000       0.28125000 </v>
    <v>       0.65625000       0.65625000       0.28125000 </v>
    <v>       0.90625000       0.65625000       0.28125000 </v>
    <v>       0.15625000       0.90625000       0.28125000 </v>
    <v>       0.40625000       0.90625000       0.28125000 </v>
    <v>       0.65625000       0.90625000       0.28125000 </v>
    <v>       0.90625000       0.90625000       0.28125000 </v>
    <v>       0.15625000       0.15625000       0.53125000 </v>
    <v>       0.40625000       0.15625000       0.53125000 </v>
    <v>       0.65625000       0.15625000       0.53125000 </v>
    <v>       0.90625000       0.15625000       0.53125000 </v>
    <v>       0.15625000       0.40625000       0.53125000 </v>
    <v>       0.40625000       0.40625000       0.53125000 </v>
    <v>       0.65625000       0.40625000       0.53125000 </v>
    <v>       0.90625000       0.40625000       0.53125000 </v>
    <v>       0.15625000       0.65625000       0.53125000 </v>
    <v>       0.40625000       0.65625000       0.53125000 </v>
    <v>       0.65625000       0.65625000       0.53125000 </v>
    <v>       0.90625000       0.65625000       0.53125000 </v>
    <v>       0.15625000       0.90625000       0.53125000 </v>
    <v>       0.40625000       0.90625000       0.53125000 </v>
    <v>       0.65625000       0.90625000       0.53125000 </v>
    <v>       0.90625000       0.90625000       0.53125000 </v>
    <v>       0.15625000       0.15625000       0.78125000 </v>
    <v>       0.40625000       0.15625000       0.78125000 </v>
    <v>       0.65625000       0.15625000       0.78125000 </v>
    <v>       0.90625000       0.15625000       0.78125000 </v>
    <v>       0.15625000       0.40625000       0.78125000 </v>
    <v>       0.40625000       0.40625000       0.78125000 </v>
    <v>       0.65625000       0.40625000       0.78125000 </v>
    <v>       0.90625000       0.40625000       0.78125000 </v>
    <v>       0.15625000       0.65625000       0.78125000 </v>
    <v>       0.40625000       0.65625000       0.78125000 </v>
    <v>       0.65625000       0.65625000       0.78125000 </v>
    <v>       0.90625000       0.65625000       0.78125000 </v>
    <v>       0.15625000       0.90625000       0.78125000 </v>
    <v>       0.40625000       0.90625000       0.78125000 </v>
    <v>       0.65625000       0.90625000       0.78125000 </v>
    <v>       0.90625000       0.90625000       0.78125000 </v>
   </varray>
  </structure>
  <varray name="primitive_index" >
   <v type="int" >        1 </v>
   <v type="int" >        2 </v>
   <v type="int" >        3 </v>
   <v type="int" >        4 </v>
   <v type="int" >        5 </v>
   <v type="int" >        6 </v>
   <v type="int" >        7 </v>
   <v type="int" >        8 </v>
   <v type="int" >        9 </v>
   <v type="int" >       10 </v>
   <v type="int" >       11 </v>
   <v type="int" >       12 </v>
   <v type="int" >       13 </v>
   <v type="int" >       14 </v>
   <v type="int" >       15 </v>
   <v type="int" >       16 </v>
   <v type="int" >       17 </v>
   <v type="int" >       18 </v>
   <v type="int" >       19 </v>
   <v type="int" >       20 </v>
   <v type="int" >       21 </v>
   <v type="int" >       22 </v>
   <v type="int" >       23 </v>
   <v type="int" >       24 </v>
   <v type="int" >       25 </v>
   <v type="int" >       26 </v>
   <v type="int" >       27 </v>
   <v type="int" >       28 </v>
   <v type="int" >       29 </v>
   <v type="int" >       30 </v>
   <v type="int" >       31 </v>
   <v type="int" >       32 </v>
   <v type="int" >       33 </v>
   <v type="int" >       34 </v>
   <v type="int" >       35 </v>
   <v type="int" >       36 </v>
   <v type="int" >       37 </v>
   <v type="int" >       38 </v>
   <v type="int" >       39 </v>
   <v type="int" >       40 </v>
   <v type="int" >       41 </v>
   <v type="int" >       42 </v>
   <v type="int" >       43 </v>
   <v type="int" >       44 </v>
   <v type="int" >       45 </v>
   <v type="int" >       46 </v>
   <v type="int" >       47 </v>
   <v type="int" >       48 </v>
   <v type="int" >       49 </v>
   <v type="int" >       50 </v>
   <v type="int" >       51 </v>
   <v type="int" >       52 </v>
   <v type="int" >       53 </v>
   <v type="int" >       54 </v>
   <v type="int" >       55 </v>
   <v type="int" >       56 </v>
   <v type="int" >       57 </v>
   <v type="int" >       58 </v>
   <v type="int" >       59 </v>
   <v type="int" >       60 </v>
   <v type="int" >       61 </v>
   <v type="int" >       62 </v>
   <v type="int" >       63 </v>
   <v type="int" >       64 </v>
   <v type="int" >       65 </v>
   <v type="int" >       66 </v>
   <v type="int" >       67 </v>
   <v type="int" >       68 </v>
   <v type="int" >       69 </v>
   <v type="int" >       70 </v>
   <v type="int" >       71 </v>
   <v type="int" >       72 </v>
   <v type="int" >       73 </v>
   <v type="int" >       74 </v>
   <v type="int" >       75 </v>
   <v type="int" >       76 </v>
   <v type="int" >       77 </v>
   <v type="int" >       78 </v>
   <v type="int" >       79 </v>
   <v type="int" >       80 </v>
   <v type="int" >       81 </v>
   <v type="int" >       82 </v>
   <v type="int" >       83 </v>
   <v type="int" >       84 </v>
   <v type="int" >       85 </v>
   <v type="int" >       86 </v>
   <v type="int" >       87 </v>
   <v type="int" >       88 </v>
   <v type="int" >       89 </v>
   <v type="int" >       90 </v>
   <v type="int" >       91 </v>
   <v type="int" >       92 </v>
   <v type="int" >       93 </v>
   <v type="int" >       94 </v>
   <v type="int" >       95 </v>
   <v type="int" >       96 </v>
   <v type="int" >       97 </v>
   <v type="int" >       98 </v>
   <v type="int" >       99 </v>
   <v type="int" >      100 </v>
   <v type="int" >      101 </v>
   <v type="int" >      102 </v>
   <v type="int" >      103 </v>
   <v type="int" >      104 </v>
   <v type="int" >      105 </v>
   <v type="int" >      106 </v>
   <v type="int" >      107 </v>
   <v type="int" >      108 </v>
   <v type="int" >      109 </v>
   <v type="int" >      110 </v>
   <v type="int" >      111 </v>
   <v type="int" >      112 </v>
   <v type="int" >      113 </v>
   <v type="int" >      114 </v>
   <v type="int" >      115 </v>
   <v type="int" >      116 </v>
   <v type="int" >      117 </v>
   <v type="int" >      118 </v>
   <v type="int" >      119 </v>
   <v type="int" >      120 </v>
   <v type="int" >      121 </v>
   <v type="int" >      122 </v>
   <v type="int" >      123 </v>
   <v type="int" >      124 </v>
   <v type="int" >      125 </v>
   <v type="int" >      126 </v>
   <v type="int" >      127 </v>
   <v type="int" >      128 </v>
   <v type="int" >      129 </v>
   <v type="int" >      130 </v>
   <v type="int" >      131 </v>
   <v type="int" >      132 </v>
   <v type="int" >      133 </v>
   <v type="int" >      134 </v>
   <v type="int" >      135 </v>
   <v type="int" >      136 </v>
   <v type="int" >      137 </v>
   <v type="int" >      138 </v>
   <v type="int" >      139 </v>
   <v type="int" >      140 </v>
   <v type="int" >      141 </v>
   <v type="int" >      142 </v>
   <v type="int" >      143 </v>
   <v type="int" >      144 </v>
   <v type="int" >      145 </v>
   <v type="int" >      146 </v>
   <v type="int" >      147 </v>
   <v type="int" >      148 </v>
   <v type="int" >      149 </v>
   <v type="int" >      150 </v>
   <v type="int" >      151 </v>
   <v type="int" >      152 </v>
   <v type="int" >      153 </v>
   <v type="int" >      154 </v>
   <v type="int" >      155 </v>
   <v type="int" >      156 </v>
   <v type="int" >      157 </v>
   <v type="int" >      158 </v>
   <v type="int" >      159 </v>
   <v type="int" >      160 </v>
   <v type="int" >      161 </v>
   <v type="int" >      162 </v>
   <v type="int" >      163 </v>
   <v type="int" >      164 </v>
   <v type="int" >      165 </v>
   <v type="int" >      166 </v>
   <v type="int" >      167 </v>
   <v type="int" >      168 </v>
   <v type="int" >      169 </v>
   <v type="int" >      170 </v>
   <v type="int" >      171 </v>
   <v type="int" >      172 </v>
   <v type="int" >      173 </v>
   <v type="int" >      174 </v>
   <v type="int" >      175 </v>
   <v type="int" >      176 </v>
   <v type="int" >      177 </v>
   <v type="int" >      178 </v>
   <v type="int" >      179 </v>
   <v type="int" >      180 </v>
   <v type="int" >      181 </v>
   <v type="int" >      182 </v>
   <v type="int" >      183 </v>
   <v type="int" >      184 </v>
   <v type="int" >      185 </v>
   <v type="int" >      186 </v>
   <v type="int" >      187 </v>
   <v type="int" >      188 </v>
   <v type="int" >      189 </v>
   <v type="int" >      190 </v>
   <v type="int" >      191 </v>
   <v type="int" >      192 </v>
   <v type="int" >      193 </v>
   <v type="int" >      194 </v>
   <v type="int" >      195 </v>
   <v type="int" >      196 </v>
   <v type="int" >      197 </v>
   <v type="int" >      198 </v>
   <v type="int" >      199 </v>
   <v type="int" >      200 </v>
   <v type="int" >      201 </v>
   <v type="int" >      202 </v>
   <v type="int" >      203 </v>
   <v type="int" >      204 </v>
   <v type="int" >      205 </v>
   <v type="int" >      206 </v>
   <v type="int" >      207 </v>
   <v type="int" >      208 </v>
   <v type="int" >      209 </v>
   <v type="int" >      210 </v>
   <v type="int" >      211 </v>
   <v type="int" >      212 </v>
   <v type="int" >      213 </v>
   <v type="int" >      214 </v>
   <v type="int" >      215 </v>
   <v type="int" >      216 </v>
   <v type="int" >      217 </v>
   <v type="int" >      218 </v>
   <v type="int" >      219 </v>
   <v type="int" >      220 </v>
   <v type="int" >      221 </v>
   <v type="int" >      222 </v>
   <v type="int" >      223 </v>
   <v type="int" >      224 </v>
   <v type="int" >      225 </v>
   <v type="int" >      226 </v>
   <v type="int" >      227 </v>
   <v type="int" >      228 </v>
   <v type="int" >      229 </v>
   <v type="int" >      230 </v>
   <v type="int" >      231 </v>
   <v type="int" >      232 </v>
   <v type="int" >      233 </v>
   <v type="int" >      234 </v>
   <v type="int" >      235 </v>
   <v type="int" >      236 </v>
   <v type="int" >      237 </v>
   <v type="int" >      238 </v>
   <v type="int" >      239 </v>
   <v type="int" >      240 </v>
   <v type="int" >      241 </v>
   <v type="int" >      242 </v>
   <v type="int" >      243 </v>
   <v type="int" >      244 </v>
   <v type="int" >      245 </v>
   <v type="int" >      246 </v>
   <v type="int" >      247 </v>
   <v type="int" >      248 </v>
   <v type="int" >      249 </v>
   <v type="int" >      250 </v>
   <v type="int" >      251 </v>
   <v type="int" >      252 </v>
   <v type="int" >      253 </v>
   <v type="int" >      254 </v>
   <v type="int" >      255 </v>
   <v type="int" >      256 </v>
   <v type="int" >      257 </v>
   <v type="int" >      258 </v>
   <v type="int" >      259 </v>
   <v type="int" >      260 </v>
   <v type="int" >      261 </v>
   <v type="int" >      262 </v>
   <v type="int" >      263 </v>
   <v type="int" >      264 </v>
   <v type="int" >      265 </v>
   <v type="int" >      266 </v>
   <v type="int" >      267 </v>
   <v type="int" >      268 </v>
   <v type="int" >      269 </v>
   <v type="int" >      270 </v>
   <v type="int" >      271 </v>
   <v type="int" >      272 </v>
   <v type="int" >      273 </v>
   <v type="int" >      274 </v>
   <v type="int" >      275 </v>
   <v type="int" >      276 </v>
   <v type="int" >      277 </v>
   <v type="int" >      278 </v>
   <v type="int" >      279 </v>
   <v type="int" >      280 </v>
   <v type="int" >      281 </v>
   <v type="int" >      282 </v>
   <v type="int" >      283 </v>
   <v type="int" >      284 </v>
   <v type="int" >      285 </v>
   <v type="int" >      286 </v>
   <v type="int" >      287 </v>
   <v type="int" >      288 </v>
   <v type="int" >      289 </v>
   <v type="int" >      290 </v>
   <v type="int" >      291 </v>
   <v type="int" >      292 </v>
   <v type="int" >      293 </v>
   <v type="int" >      294 </v>
   <v type="int" >      295 </v>
   <v type="int" >      296 </v>
   <v type="int" >      297 </v>
   <v type="int" >      298 </v>
   <v type="int" >      299 </v>
   <v type="int" >      300 </v>
   <v type="int" >      301 </v>
   <v type="int" >      302 </v>
   <v type="int" >      303 </v>
   <v type="int" >      304 </v>
   <v type="int" >      305 </v>
   <v type="int" >      306 </v>
   <v type="int" >      307 </v>
   <v type="int" >      308 </v>
   <v type="int" >      309 </v>
   <v type="int" >      310 </v>
   <v type="int" >      311 </v>
   <v type="int" >      312 </v>
   <v type="int" >      313 </v>
   <v type="int" >      314 </v>
   <v type="int" >      315 </v>
   <v type="int" >      316 </v>
   <v type="int" >      317 </v>
   <v type="int" >      318 </v>
   <v type="int" >      319 </v>
   <v type="int" >      320 </v>
   <v type="int" >      321 </v>
   <v type="int" >      322 </v>
   <v type="int" >      323 </v>
   <v type="int" >      324 </v>
   <v type="int" >      325 </v>
   <v type="int" >      326 </v>
   <v type="int" >      327 </v>
   <v type="int" >      328 </v>
   <v type="int" >      329 </v>
   <v type="int" >      330 </v>
   <v type="int" >      331 </v>
   <v type="int" >      332 </v>
   <v type="int" >      333 </v>
   <v type="int" >      334 </v>
   <v type="int" >      335 </v>
   <v type="int" >      336 </v>
   <v type="int" >      337 </v>
   <v type="int" >      338 </v>
   <v type="int" >      339 </v>
   <v type="int" >      340 </v>
   <v type="int" >      341 </v>
   <v type="int" >      342 </v>
   <v type="int" >      343 </v>
   <v type="int" >      344 </v>
   <v type="int" >      345 </v>
   <v type="int" >      346 </v>
   <v type="int" >      347 </v>
   <v type="int" >      348 </v>
   <v type="int" >      349 </v>
   <v type="int" >      350 </v>
   <v type="int" >      351 </v>
   <v type="int" >      352 </v>
   <v type="int" >      353 </v>
   <v type="int" >      354 </v>
   <v type="int" >      355 </v>
   <v type="int" >      356 </v>
   <v type="int" >      357 </v>
   <v type="int" >      358 </v>
   <v type="int" >      359 </v>
   <v type="int" >      360 </v>
   <v type="int" >      361 </v>
   <v type="int" >      362 </v>
   <v type="int" >      363 </v>
   <v type="int" >      364 </v>
   <v type="int" >      365 </v>
   <v type="int" >      366 </v>
   <v type="int" >      367 </v>
   <v type="int" >      368 </v>
   <v type="int" >      369 </v>
   <v type="int" >      370 </v>
   <v type="int" >      371 </v>
   <v type="int" >      372 </v>
   <v type="int" >      373 </v>
   <v type="int" >      374 </v>
   <v type="int" >      375 </v>
   <v type="int" >      376 </v>
   <v type="int" >      377 </v>
   <v type="int" >      378 </v>
   <v type="int" >      379 </v>
   <v type="int" >      380 </v>
   <v type="int" >      381 </v>
   <v type="int" >      382 </v>
   <v type="int" >      383 </v>
   <v type="int" >      384 </v>
   <v type="int" >      385 </v>
   <v type="int" >      386 </v>
   <v type="int" >      387 </v>
   <v type="int" >      388 </v>
   <v type="int" >      389 </v>
   <v type="int" >      390 </v>
   <v type="int" >      391 </v>
   <v type="int" >      392 </v>
   <v type="int" >      393 </v>
   <v type="int" >      394 </v>
   <v type="int" >      395 </v>
   <v type="int" >      396 </v>
   <v type="int" >      397 </v>
   <v type="int" >      398 </v>
   <v type="int" >      399 </v>
   <v type="int" >      400 </v>
   <v type="int" >      401 </v>
   <v type="int" >      402 </v>
   <v type="int" >      403 </v>
   <v type="int" >      404 </v>
   <v type="int" >      405 </v>
   <v type="int" >      406 </v>
   <v type="int" >      407 </v>
   <v type="int" >      408 </v>
   <v type="int" >      409 </v>
   <v type="int" >      410 </v>
   <v type="int" >      411 </v>
   <v type="int" >      412 </v>
   <v type="int" >      413 </v>
   <v type="int" >      414 </v>
   <v type="int" >      415 </v>
   <v type="int" >      416 </v>
   <v type="int" >      417 </v>
   <v type="int" >      418 </v>
   <v type="int" >      419 </v>
   <v type="int" >      420 </v>
   <v type="int" >      421 </v>
   <v type="int" >      422 </v>
   <v type="int" >      423 </v>
   <v type="int" >      424 </v>
   <v type="int" >      425 </v>
   <v type="int" >      426 </v>
   <v type="int" >      427 </v>
   <v type="int" >      428 </v>
   <v type="int" >      429 </v>
   <v type="int" >      430 </v>
   <v type="int" >      431 </v>
   <v type="int" >      432 </v>
   <v type="int" >      433 </v>
   <v type="int" >      434 </v>
   <v type="int" >      435 </v>
   <v type="int" >      436 </v>
   <v type="int" >      437 </v>
   <v type="int" >      438 </v>
   <v type="int" >      439 </v>
   <v type="int" >      440 </v>
   <v type="int" >      441 </v>
   <v type="int" >      442 </v>
   <v type="int" >      443 </v>
   <v type="int" >      444 </v>
   <v type="int" >      445 </v>
   <v type="int" >      446 </v>
   <v type="int" >      447 </v>
   <v type="int" >      448 </v>
   <v type="int" >      449 </v>
   <v type="int" >      450 </v>
   <v type="int" >      451 </v>
   <v type="int" >      452 </v>
   <v type="int" >      453 </v>
   <v type="int" >      454 </v>
   <v type="int" >      455 </v>
   <v type="int" >      456 </v>
   <v type="int" >      457 </v>
   <v type="int" >      458 </v>
   <v type="int" >      459 </v>
   <v type="int" >      460 </v>
   <v type="int" >      461 </v>
   <v type="int" >      462 </v>
   <v type="int" >      463 </v>
   <v type="int" >      464 </v>
   <v type="int" >      465 </v>
   <v type="int" >      466 </v>
   <v type="int" >      467 </v>
   <v type="int" >      468 </v>
   <v type="int" >      469 </v>
   <v type="int" >      470 </v>
   <v type="int" >      471 </v>
   <v type="int" >      472 </v>
   <v type="int" >      473 </v>
   <v type="int" >      474 </v>
   <v type="int" >      475 </v>
   <v type="int" >      476 </v>
   <v type="int" >      477 </v>
   <v type="int" >      478 </v>
   <v type="int" >      479 </v>
   <v type="int" >      480 </v>
   <v type="int" >      481 </v>
   <v type="int" >      482 </v>
   <v type="int" >      483 </v>
   <v type="int" >      484 </v>
   <v type="int" >      485 </v>
   <v type="int" >      486 </v>
   <v type="int" >      487 </v>
   <v type="int" >      488 </v>
   <v type="int" >      489 </v>
   <v type="int" >      490 </v>
   <v type="int" >      491 </v>
   <v type="int" >      492 </v>
   <v type="int" >      493 </v>
   <v type="int" >      494 </v>
   <v type="int" >      495 </v>
   <v type="int" >      496 </v>
   <v type="int" >      497 </v>
   <v type="int" >      498 </v>
   <v type="int" >      499 </v>
   <v type="int" >      500 </v>
   <v type="int" >      501 </v>
   <v type="int" >      502 </v>
   <v type="int" >      503 </v>
   <v type="int" >      504 </v>
   <v type="int" >      505 </v>
   <v type="int" >      506 </v>
   <v type="int" >      507 </v>
   <v type="int" >      508 </v>
   <v type="int" >      509 </v>
   <v type="int" >      510 </v>
   <v type="int" >      511 </v>
   <v type="int" >      512 </v>
  </varray>
 </primitive_cell>
 <kpoints>
  <generation param="Gamma">
   <v type="int" name="divisions">       1        1        1 </v>
   <v name="usershift">      0.50000000       0.50000000       0.50000000 </v>
   <v name="genvec1">      1.00000000       0.00000000       0.00000000 </v>
   <v name="genvec2">      0.00000000       1.00000000       0.00000000 </v>
   <v name="genvec3">      0.00000000       0.00000000       1.00000000 </v>
   <v name="shift">      0.50000000       0.50000000       0.50000000 </v>
  </generation>
  <varray name="kpointlist" >
   <v>       0.50000000       0.50000000       0.50000000 </v>
  </varray>
  <varray name="weights" >
   <v>       1.00000000 </v>
  </varray>
 </kpoints>
 <parameters>
  <separator name="general" >
   <i type="string" name="SYSTEM">unknown system</i>
   <i type="logical" name="LCOMPAT"> F  </i>
  </separator>
  <separator name="electronic" >
   <i type="string" name="PREC">accura</i>
   <i name="ENMAX">    300.00000000</i>
   <i name="ENAUG">    322.06900000</i>
   <i name="EDIFF">      0.00000001</i>
   <i type="int" name="IALGO">    38</i>
   <i type="int" name="IWAVPR">    10</i>
   <i type="int" name="NBANDS">  1284</i>
   <i type="int" name="NBANDSLOW">    -1</i>
   <i type="int" name="NBANDSHIGH">    -1</i>
   <i name="NELECT">   2048.00000000</i>
   <i type="int" name="TURBO">     0</i>
   <i type="int" name="IRESTART">     0</i>
   <i type="int" name="NREBOOT">     0</i>
   <i type="int" name="NMIN">     0</i>
   <i name="EREF">      0.00000000</i>
   <separator name="electronic smearing" >
    <i type="int" name="ISMEAR">     0</i>
    <i name="SIGMA">      0.05000000</i>
    <i name="KSPACING">      0.50000000</i>
    <i type="logical" name="KGAMMA"> T  </i>
    <i type="logical" name="KBLOWUP"> T  </i>
   </separator>
   <separator name="electronic projectors" >
    <i type="logical" name="LREAL"> F  </i>
    <v name="ROPT">      0.00000000</v>
    <i type="int" name="LMAXPAW">  -100</i>
    <i type="int" name="LMAXMIX">     2</i>
    <i type="logical" name="NLSPLINE"> F  </i>
   </separator>
   <separator name="electronic startup" >
    <i type="int" name="ISTART">     0</i>
    <i type="int" name="ICHARG">     2</i>
    <i type="int" name="INIWAV">     1</i>
   </separator>
   <separator name="electronic spin" >
    <i type="int" name="ISPIN">     1</i>
    <i type="logical" name="LNONCOLLINEAR"> F  </i>
    <v name="MAGMOM">      1.00000000      1.00000000      1.00000000      1.00000000      1.00000000      1.00000000      1.00000000      1.00000000      1.00000000      1.00000000      1.00000000      1.00000000      1.00000000      1.00000000      1.00000000      1.00000000      1.00000000      1.00000000      1.00000000      1.00000000
      1.00000000      1.00000000      1.00000000      1.00000000      1.00000000      1.00000000      1.00000000      1.00000000      1.00000000      1.00000000      1.00000000      1.00000000      1.00000000      1.00000000      1.00000000      1.00000000      1.00000000      1.00000000      1.00000000      1.00000000
      1.00000000      1.00000000      1.00000000      1.00000000      1.00000000      1.00000000      1.00000000      1.00000000      1.00000000      1.00000000      1.00000000      1.00000000      1.00000000      1.00000000      1.00000000      1.00000000      1.00000000      1.00000000      1.00000000      1.00000000
      1.00000000      1.00000000      1.00000000      1.00000000      1.00000000      1.00000000      1.00000000      1.00000000      1.00000000      1.00000000      1.00000000      1.00000000      1.00000000      1.00000000      1.00000000      1.00000000      1.00000000      1.00000000      1.00000000      1.00000000
      1.00000000      1.00000000      1.00000000      1.00000000      1.00000000      1.00000000      1.00000000      1.00000000      1.00000000      1.00000000      1.00000000      1.00000000      1.00000000      1.00000000      1.00000000      1.00000000      1.00000000      1.00000000      1.00000000      1.00000000
      1.00000000      1.00000000      1.00000000      1.00000000      1.00000000      1.00000000      1.00000000      1.00000000      1.00000000      1.00000000      1.00000000      1.00000000      1.00000000      1.00000000      1.00000000      1.00000000      1.00000000      1.00000000      1.00000000      1.00000000
      1.00000000      1.00000000      1.00000000      1.00000000      1.00000000      1.00000000      1.00000000      1.00000000      1.00000000      1.00000000      1.00000000      1.00000000      1.00000000      1.00000000      1.00000000      1.00000000      1.00000000      1.00000000      1.00000000      1.00000000
      1.00000000      1.00000000      1.00000000      1.00000000      1.00000000      1.00000000      1.00000000      1.00000000      1.00000000      1.00000000      1.00000000      1.00000000      1.00000000      1.00000000      1.00000000      1.00000000      1.00000000      1.00000000      1.00000000      1.00000000
      1.00000000      1.00000000      1.00000000      1.00000000      1.00000000      1.00000000      1.00000000      1.00000000      1.00000000      1.00000000      1.00000000      1.00000000      1.00000000      1.00000000      1.00000000      1.00000000      1.00000000      1.00000000      1.00000000      1.00000000
      1.00000000      1.00000000      1.00000000      1.00000000      1.00000000      1.00000000      1.00000000      1.00000000      1.00000000      1.00000000      1.00000000      1.00000000      1.00000000      1.00000000      1.00000000      1.00000000      1.00000000      1.00000000      1.00000000      1.00000000
      1.00000000      1.00000000      1.00000000      1.00000000      1.00000000      1.00000000      1.00000000      1.00000000      1.00000000      1.00000000      1.00000000      1.00000000      1.00000000      1.00000000      1.00000000      1.00000000      1.00000000      1.00000000      1.00000000      1.00000000
      1.00000000      1.00000000      1.00000000      1.00000000      1.00000000      1.00000000      1.00000000      1.00000000      1.00000000      1.00000000      1.00000000      1.00000000      1.00000000      1.00000000      1.00000000      1.00000000      1.00000000      1.00000000      1.00000000      1.00000000
      1.00000000      1.00000000      1.00000000      1.00000000      1.00000000      1.00000000      1.00000000      1.00000000      1.00000000      1.00000000      1.00000000      1.00000000      1.00000000      1.00000000      1.00000000      1.00000000      1.00000000      1.00000000      1.00000000      1.00000000
      1.00000000      1.00000000      1.00000000      1.00000000      1.00000000      1.00000000      1.00000000      1.00000000      1.00000000      1.00000000      1.00000000      1.00000000      1.00000000      1.00000000      1.00000000      1.00000000      1.00000000      1.00000000      1.00000000      1.00000000
      1.00000000      1.00000000      1.00000000      1.00000000      1.00000000      1.00000000      1.00000000      1.00000000      1.00000000      1.00000000      1.00000000      1.00000000      1.00000000      1.00000000      1.00000000      1.00000000      1.00000000      1.00000000      1.00000000      1.00000000
      1.00000000      1.00000000      1.00000000      1.00000000      1.00000000      1.00000000      1.00000000      1.00000000      1.00000000      1.00000000      1.00000000      1.00000000      1.00000000      1.00000000      1.00000000      1.00000000      1.00000000      1.00000000      1.00000000      1.00000000
      1.00000000      1.00000000      1.00000000      1.00000000      1.00000000      1.00000000      1.00000000      1.00000000      1.00000000      1.00000000      1.00000000      1.00000000      1.00000000      1.00000000      1.00000000      1.00000000      1.00000000      1.00000000      1.00000000      1.00000000
      1.00000000      1.00000000      1.00000000      1.00000000      1.00000000      1.00000000      1.00000000      1.00000000      1.00000000      1.00000000      1.00000000      1.00000000      1.00000000      1.00000000      1.00000000      1.00000000      1.00000000      1.00000000      1.00000000      1.00000000
      1.00000000      1.00000000      1.00000000      1.00000000      1.00000000      1.00000000      1.00000000      1.00000000      1.00000000      1.00000000      1.00000000      1.00000000      1.00000000      1.00000000      1.00000000      1.00000000      1.00000000      1.00000000      1.00000000      1.00000000
      1.00000000      1.00000000      1.00000000      1.00000000      1.00000000      1.00000000      1.00000000      1.00000000      1.00000000      1.00000000      1.00000000      1.00000000      1.00000000      1.00000000      1.00000000      1.00000000      1.00000000      1.00000000      1.00000000      1.00000000
      1.00000000      1.00000000      1.00000000      1.00000000      1.00000000      1.00000000      1.00000000      1.00000000      1.00000000      1.00000000      1.00000000      1.00000000      1.00000000      1.00000000      1.00000000      1.00000000      1.00000000      1.00000000      1.00000000      1.00000000
      1.00000000      1.00000000      1.00000000      1.00000000      1.00000000      1.00000000      1.00000000      1.00000000      1.00000000      1.00000000      1.00000000      1.00000000      1.00000000      1.00000000      1.00000000      1.00000000      1.00000000      1.00000000      1.00000000      1.00000000
      1.00000000      1.00000000      1.00000000      1.00000000      1.00000000      1.00000000      1.00000000      1.00000000      1.00000000      1.00000000      1.00000000      1.00000000      1.00000000      1.00000000      1.00000000      1.00000000      1.00000000      1.00000000      1.00000000      1.00000000
      1.00000000      1.00000000      1.00000000      1.00000000      1.00000000      1.00000000      1.00000000      1.00000000      1.00000000      1.00000000      1.00000000      1.00000000      1.00000000      1.00000000      1.00000000      1.00000000      1.00000000      1.00000000      1.00000000      1.00000000
      1.00000000      1.00000000      1.00000000      1.00000000      1.00000000      1.00000000      1.00000000      1.00000000      1.00000000      1.00000000      1.00000000      1.00000000      1.00000000      1.00000000      1.00000000      1.00000000      1.00000000      1.00000000      1.00000000      1.00000000
      1.00000000      1.00000000      1.00000000      1.00000000      1.00000000      1.00000000      1.00000000      1.00000000      1.00000000      1.00000000      1.00000000      1.00000000</v>
    <i name="NUPDOWN">     -1.00000000</i>
    <i type="logical" name="LSORBIT"> F  </i>
    <v name="SAXIS">      0.00000000      0.00000000      1.00000000</v>
    <i type="logical" name="LSPIRAL"> F  </i>
    <v name="QSPIRAL">      0.00000000      0.00000000      0.00000000</v>
    <i type="logical" name="LZEROZ"> F  </i>
   </separator>
   <separator name="electronic exchange-correlation" >
    <i type="logical" name="LASPH"> F  </i>
    <i type="logical" name="LMETAGGA"> F  </i>
   </separator>
   <separator name="electronic convergence" >
    <i type="int" name="NELM">    60</i>
    <i type="int" name="NELMDL">    -5</i>
    <i type="int" name="NELMIN">     5</i>
    <i name="ENINI">    300.00000000</i>
    <separator name="electronic convergence detail" >
     <i type="logical" name="LDIAG"> T  </i>
     <i type="logical" name="LSUBROT"> F  </i>
     <i name="WEIMIN">      0.00000000</i>
     <i name="EBREAK">      0.00000000</i>
     <i name="DEPER">      0.30000000</i>
     <i type="int" name="NRMM">     4</i>
     <i name="TIME">      0.40000000</i>
    </separator>
   </separator>
   <separator name="electronic mixer" >
    <i name="AMIX">      0.40000000</i>
    <i name="BMIX">      1.00000000</i>
    <i name="AMIN">      0.10000000</i>
    <i name="AMIX_MAG">      1.60000000</i>
    <i name="BMIX_MAG">      1.00000000</i>
    <separator name="electronic mixer details" >
     <i type="int" name="IMIX">     4</i>
     <i type="logical" name="MIXFIRST"> F  </i>
     <i type="int" name="MAXMIX">   -45</i>
     <i name="WC">    100.00000000</i>
     <i type="int" name="INIMIX">     1</i>
     <i type="int" name="MIXPRE">     1</i>
     <i type="int" name="MREMOVE">     5</i>
    </separator>
   </separator>
   <separator name="electronic dipolcorrection" >
    <i type="logical" name="LDIPOL"> F  </i>
    <i type="logical" name="LMONO"> F  </i>
    <i type="int" name="IDIPOL">     0</i>
    <i name="EPSILON">      1.00000000</i>
    <v name="DIPOL">   -100.00000000   -100.00000000   -100.00000000</v>
    <i name="EFIELD">      0.00000000</i>
   </separator>
  </separator>
  <separator name="grids" >
   <i type="int" name="NGX">   126</i>
   <i type="int" name="NGY">   126</i>
   <i type="int" name="NGZ">   126</i>
   <i type="int" name="NGXF">   252</i>
   <i type="int" name="NGYF">   252</i>
   <i type="int" name="NGZF">   252</i>
   <i type="logical" name="ADDGRID"> T  </i>
  </separator>
  <separator name="ionic" >
   <i type="int" name="NSW">     0</i>
   <i type="int" name="IBRION">    -1</i>
   <i type="int" name="MDALGO">     0</i>
   <i type="int" name="ISIF">     2</i>
   <i name="PSTRESS">      0.00000000</i>
   <i name="EDIFFG">      0.00000010</i>
   <i type="int" name="NFREE">     0</i>
   <i name="POTIM">      0.50000000</i>
   <i name="SMASS">     -3.00000000</i>
   <i name="SCALEE">      1.00000000</i>
  </separator>
  <separator name="ionic md" >
   <i name="TEBEG">      0.00010000</i>
   <i name="TEEND">      0.00010000</i>
   <i type="int" name="NBLOCK">     1</i>
   <i type="int" name="KBLOCK">     1</i>
   <i type="int" name="NPACO">   256</i>
   <i name="APACO">     10.00000000</i>
  </separator>
  <separator name="symmetry" >
   <i type="int" name="ISYM">     2</i>
   <i name="SYMPREC">      0.00001000</i>
  </separator>
  <separator name="dos" >
   <i type="int" name="LORBIT">     0</i>
   <v name="RWIGS">     -1.00000000</v>
   <i type="int" name="NEDOS">   301</i>
   <i name="EMIN">     10.00000000</i>
   <i name="EMAX">    -10.00000000</i>
   <i name="EFERMI">      0.00000000</i>
  </separator>
  <separator name="writing" >
   <i type="int" name="NWRITE">     2</i>
   <i type="logical" name="LWAVE"> F  </i>
   <i type="logical" name="LDOWNSAMPLE"> F  </i>
   <i type="logical" name="LCHARG"> F  </i>
   <i type="logical" name="LPARD"> F  </i>
   <i type="logical" name="LVTOT"> F  </i>
   <i type="logical" name="LVHAR"> F  </i>
   <i type="logical" name="LELF"> F  </i>
   <i type="logical" name="LOPTICS"> F  </i>
   <v name="STM">      0.00000000      0.00000000      0.00000000      0.00000000      0.00000000      0.00000000      0.00000000</v>
  </separator>
  <separator name="performance" >
   <i type="int" name="NPAR">     4</i>
   <i type="int" name="NSIM">     4</i>
   <i type="int" name="NBLK">    -1</i>
   <i type="logical" name="LPLANE"> T  </i>
   <i type="logical" name="LSCALAPACK"> T  </i>
   <i type="logical" name="LSCAAWARE"> F  </i>
   <i type="logical" name="LSCALU"> F  </i>
   <i type="logical" name="LASYNC"> F  </i>
   <i type="logical" name="LORBITALREAL"> F  </i>
  </separator>
  <separator name="miscellaneous" >
   <i type="int" name="IDIOT">     3</i>
   <i type="int" name="PHON_NSTRUCT">    -1</i>
   <i type="logical" name="LMUSIC"> F  </i>
   <v name="POMASS">     28.08500000</v>
   <v name="DARWINR">      0.00000000</v>
   <v name="DARWINV">      1.00000000</v>
   <i type="logical" name="LCORR"> T  </i>
  </separator>
  <i type="logical" name="GGA_COMPAT"> T  </i>
  <i type="logical" name="LBERRY"> F  </i>
  <i type="int" name="ICORELEVEL">     0</i>
  <i type="logical" name="LDAU"> F  </i>
  <i type="int" name="I_CONSTRAINED_M">     0</i>
  <separator name="electronic exchange-correlation" >
   <i type="string" name="GGA">PS</i>
   <i type="int" name="VOSKOWN">     0</i>
   <i type="logical" name="LHFCALC"> F  </i>
   <i type="string" name="PRECFOCK"></i>
   <i type="logical" name="LSYMGRAD"> F  </i>
   <i type="logical" name="LHFONE"> F  </i>
   <i type="logical" name="LRHFCALC"> F  </i>
   <i type="logical" name="LTHOMAS"> F  </i>
   <i type="logical" name="LMODELHF"> F  </i>
   <i type="logical" name="LFOCKACE"> F  </i>
   <i name="ENCUT4O">     -1.00000000</i>
   <i type="int" name="EXXOEP">     0</i>
   <i type="int" name="FOURORBIT">     0</i>
   <i name="AEXX">      0.00000000</i>
   <i name="HFALPHA">      0.00000000</i>
   <i name="MCALPHA">      0.00000000</i>
   <i name="ALDAX">      1.00000000</i>
   <i name="AGGAX">      1.00000000</i>
   <i name="ALDAC">      1.00000000</i>
   <i name="AGGAC">      1.00000000</i>
   <i type="int" name="NKREDX">     1</i>
   <i type="int" name="NKREDY">     1</i>
   <i type="int" name="NKREDZ">     1</i>
   <i type="logical" name="SHIFTRED"> F  </i>
   <i type="logical" name="ODDONLY"> F  </i>
   <i type="logical" name="EVENONLY"> F  </i>
   <i type="int" name="LMAXFOCK">     0</i>
   <i type="int" name="NMAXFOCKAE">     0</i>
   <i type="logical" name="LFOCKAEDFT"> F  </i>
   <i name="HFSCREEN">      0.00000000</i>
   <i name="HFSCREENC">      0.00000000</i>
   <i type="int" name="NBANDSGWLOW">     0</i>
  </separator>
  <separator name="vdW DFT" >
   <i type="logical" name="LUSE_VDW"> F  </i>
   <i name="Zab_VDW">     -0.84910000</i>
   <i name="PARAM1">      0.12340000</i>
   <i name="PARAM2">      1.00000000</i>
   <i name="PARAM3">      0.00000000</i>
  </separator>
  <separator name="model GW" >
   <i type="int" name="MODEL_GW">     0</i>
   <i name="MODEL_EPS0">     12.03135862</i>
   <i name="MODEL_ALPHA">      1.00000000</i>
  </separator>
  <separator name="linear response parameters" >
   <i type="logical" name="LEPSILON"> F  </i>
   <i type="logical" name="LRPA"> F  </i>
   <i type="logical" name="LNABLA"> F  </i>
   <i type="logical" name="LVEL"> F  </i>
   <i name="CSHIFT">      0.10000000</i>
   <i name="OMEGAMAX">     -1.00000000</i>
   <i name="DEG_THRESHOLD">      0.00200000</i>
   <i name="RTIME">     -0.10000000</i>
   <i name="WPLASMAI">      0.00000000</i>
   <v name="DFIELD">      0.00000000      0.00000000      0.00000000</v>
   <v name="WPLASMA">      0.00000000      0.00000000      0.00000000      0.00000000      0.00000000      0.00000000      0.00000000      0.00000000      0.00000000</v>
  </separator>
  <separator name="orbital magnetization" >
   <i type="logical" name="NUCIND"> F  </i>
   <v name="MAGPOS">      0.00000000      0.00000000      0.00000000</v>
   <i type="logical" name="LNICSALL"> T  </i>
   <i type="logical" name="ORBITALMAG"> F  </i>
   <i type="logical" name="LMAGBLOCH"> F  </i>
   <i type="logical" name="LCHIMAG"> F  </i>
   <i type="logical" name="LGAUGE"> T  </i>
   <i type="int" name="MAGATOM">     0</i>
   <v name="MAGDIPOL">      0.00000000      0.00000000      0.00000000</v>
   <v name="AVECCONST">      0.00000000      0.00000000      0.00000000</v>
  </separator>
  <separator name="response functions" >
   <i type="logical" name="LFINITE_TEMPERATURE"> F  </i>
   <i type="logical" name="LADDER"> F  </i>
   <i type="logical" name="LRPAFORCE"> F  </i>
   <i type="logical" name="LFXC"> F  </i>
   <i type="logical" name="LHARTREE"> T  </i>
   <i type="int" name="IBSE">     0</i>
   <v type="int" name="KPOINT">    -1     0     0     0</v>
   <i type="logical" name="LTCTC"> F  </i>
   <i type="logical" name="LTCTE"> F  </i>
   <i type="logical" name="LTETE"> F  </i>
   <i type="logical" name="LTRIPLET"> F  </i>
   <i type="logical" name="LFXCEPS"> F  </i>
   <i type="logical" name="LFXHEG"> F  </i>
   <i type="int" name="NATURALO">     2</i>
   <i type="logical" name="LHOLEGF"> F  </i>
   <i type="logical" name="L2ORDER"> F  </i>
   <i type="logical" name="LDMP1"> F  </i>
   <i type="logical" name="LMP2LT"> F  </i>
   <i type="logical" name="LSMP2LT"> F  </i>
   <i type="logical" name="LGWLF"> F  </i>
   <i name="ENCUTGW">     -2.00000000</i>
   <i name="ENCUTGWSOFT">     -2.00000000</i>
   <i name="ENCUTLF">     -1.00000000</i>
   <i type="logical" name="LESF_SPLINES"> F  </i>
   <i type="int" name="LMAXMP2">    -1</i>
   <i name="SCISSOR">      0.00000000</i>
   <i type="int" name="NOMEGA">     0</i>
   <i type="int" name="NOMEGAR">     0</i>
   <i type="int" name="NBANDSGW">    -1</i>
   <i type="int" name="NBANDSO">    -1</i>
   <i type="int" name="NBANDSV">    -1</i>
   <i type="int" name="NELMGW">     1</i>
   <i type="int" name="NELMHF">     1</i>
   <i type="int" name="DIM">     3</i>
   <i type="int" name="IESPILON">     4</i>
   <i type="int" name="ANTIRES">     0</i>
   <i name="OMEGAMAX">    -30.00000000</i>
   <i name="OMEGAMIN">    -30.00000000</i>
   <i name="OMEGATL">   -200.00000000</i>
   <i type="int" name="OMEGAGRID">     0</i>
   <i name="CSHIFT">     -0.10000000</i>
   <i type="logical" name="LSELFENERGY"> F  </i>
   <i type="logical" name="LSPECTRAL"> F  </i>
   <i type="logical" name="LSPECTRALGW"> F  </i>
   <i type="logical" name="LSINGLES"> F  </i>
   <i type="logical" name="LFERMIGW"> F  </i>
   <i type="logical" name="ODDONLYGW"> F  </i>
   <i type="logical" name="EVENONLYGW"> F  </i>
   <i type="int" name="NKREDLFX">     1</i>
   <i type="int" name="NKREDLFY">     1</i>
   <i type="int" name="NKREDLFZ">     1</i>
   <i type="int" name="MAXMEM">  2800</i>
   <i type="int" name="TELESCOPE">     0</i>
   <i type="int" name="NTAUPAR">    -1</i>
   <i type="int" name="NOMEGAPAR">    -1</i>
   <i name="DAMP_NEWTON">      0.80000001</i>
   <i name="LAMBDA">      1.00000000</i>
  </separator>
  <separator name="External order field" >
   <i name="OFIELD_KAPPA">      0.00000000</i>
   <v name="OFIELD_K">      0.00000000      0.00000000      0.00000000</v>
   <i name="OFIELD_Q6_NEAR">      0.00000000</i>
   <i name="OFIELD_Q6_FAR">      0.00000000</i>
   <i name="OFIELD_A">      0.00000000</i>
  </separator>
  <separator name="optional k-points parameters" >
   <i type="int" name="KPOINTS_OPT_MODE">     1</i>
   <i type="logical" name="LKPOINTS_OPT"> F  </i>
  </separator>
 </parameters>
 <atominfo>
  <atoms>     512 </atoms>
  <types>       1 </types>
  <array name="atoms" >
   <dimension dim="1">ion</dimension>
   <field type="string">element</field>
   <field type="int">atomtype</field>
   <set>
    <rc><c>Si</c><c>   1</c></rc>
    <rc><c>Si</c><c>   1</c></rc>
    <rc><c>Si</c><c>   1</c></rc>
    <rc><c>Si</c><c>   1</c></rc>
    <rc><c>Si</c><c>   1</c></rc>
    <rc><c>Si</c><c>   1</c></rc>
    <rc><c>Si</c><c>   1</c></rc>
    <rc><c>Si</c><c>   1</c></rc>
    <rc><c>Si</c><c>   1</c></rc>
    <rc><c>Si</c><c>   1</c></rc>
    <rc><c>Si</c><c>   1</c></rc>
    <rc><c>Si</c><c>   1</c></rc>
    <rc><c>Si</c><c>   1</c></rc>
    <rc><c>Si</c><c>   1</c></rc>
    <rc><c>Si</c><c>   1</c></rc>
    <rc><c>Si</c><c>   1</c></rc>
    <rc><c>Si</c><c>   1</c></rc>
    <rc><c>Si</c><c>   1</c></rc>
    <rc><c>Si</c><c>   1</c></rc>
    <rc><c>Si</c><c>   1</c></rc>
    <rc><c>Si</c><c>   1</c></rc>
    <rc><c>Si</c><c>   1</c></rc>
    <rc><c>Si</c><c>   1</c></rc>
    <rc><c>Si</c><c>   1</c></rc>
    <rc><c>Si</c><c>   1</c></rc>
    <rc><c>Si</c><c>   1</c></rc>
    <rc><c>Si</c><c>   1</c></rc>
    <rc><c>Si</c><c>   1</c></rc>
    <rc><c>Si</c><c>   1</c></rc>
    <rc><c>Si</c><c>   1</c></rc>
    <rc><c>Si</c><c>   1</c></rc>
    <rc><c>Si</c><c>   1</c></rc>
    <rc><c>Si</c><c>   1</c></rc>
    <rc><c>Si</c><c>   1</c></rc>
    <rc><c>Si</c><c>   1</c></rc>
    <rc><c>Si</c><c>   1</c></rc>
    <rc><c>Si</c><c>   1</c></rc>
    <rc><c>Si</c><c>   1</c></rc>
    <rc><c>Si</c><c>   1</c></rc>
    <rc><c>Si</c><c>   1</c></rc>
    <rc><c>Si</c><c>   1</c></rc>
    <rc><c>Si</c><c>   1</c></rc>
    <rc><c>Si</c><c>   1</c></rc>
    <rc><c>Si</c><c>   1</c></rc>
    <rc><c>Si</c><c>   1</c></rc>
    <rc><c>Si</c><c>   1</c></rc>
    <rc><c>Si</c><c>   1</c></rc>
    <rc><c>Si</c><c>   1</c></rc>
    <rc><c>Si</c><c>   1</c></rc>
    <rc><c>Si</c><c>   1</c></rc>
    <rc><c>Si</c><c>   1</c></rc>
    <rc><c>Si</c><c>   1</c></rc>
    <rc><c>Si</c><c>   1</c></rc>
    <rc><c>Si</c><c>   1</c></rc>
    <rc><c>Si</c><c>   1</c></rc>
    <rc><c>Si</c><c>   1</c></rc>
    <rc><c>Si</c><c>   1</c></rc>
    <rc><c>Si</c><c>   1</c></rc>
    <rc><c>Si</c><c>   1</c></rc>
    <rc><c>Si</c><c>   1</c></rc>
    <rc><c>Si</c><c>   1</c></rc>
    <rc><c>Si</c><c>   1</c></rc>
    <rc><c>Si</c><c>   1</c></rc>
    <rc><c>Si</c><c>   1</c></rc>
    <rc><c>Si</c><c>   1</c></rc>
    <rc><c>Si</c><c>   1</c></rc>
    <rc><c>Si</c><c>   1</c></rc>
    <rc><c>Si</c><c>   1</c></rc>
    <rc><c>Si</c><c>   1</c></rc>
    <rc><c>Si</c><c>   1</c></rc>
    <rc><c>Si</c><c>   1</c></rc>
    <rc><c>Si</c><c>   1</c></rc>
    <rc><c>Si</c><c>   1</c></rc>
    <rc><c>Si</c><c>   1</c></rc>
    <rc><c>Si</c><c>   1</c></rc>
    <rc><c>Si</c><c>   1</c></rc>
    <rc><c>Si</c><c>   1</c></rc>
    <rc><c>Si</c><c>   1</c></rc>
    <rc><c>Si</c><c>   1</c></rc>
    <rc><c>Si</c><c>   1</c></rc>
    <rc><c>Si</c><c>   1</c></rc>
    <rc><c>Si</c><c>   1</c></rc>
    <rc><c>Si</c><c>   1</c></rc>
    <rc><c>Si</c><c>   1</c></rc>
    <rc><c>Si</c><c>   1</c></rc>
    <rc><c>Si</c><c>   1</c></rc>
    <rc><c>Si</c><c>   1</c></rc>
    <rc><c>Si</c><c>   1</c></rc>
    <rc><c>Si</c><c>   1</c></rc>
    <rc><c>Si</c><c>   1</c></rc>
    <rc><c>Si</c><c>   1</c></rc>
    <rc><c>Si</c><c>   1</c></rc>
    <rc><c>Si</c><c>   1</c></rc>
    <rc><c>Si</c><c>   1</c></rc>
    <rc><c>Si</c><c>   1</c></rc>
    <rc><c>Si</c><c>   1</c></rc>
    <rc><c>Si</c><c>   1</c></rc>
    <rc><c>Si</c><c>   1</c></rc>
    <rc><c>Si</c><c>   1</c></rc>
    <rc><c>Si</c><c>   1</c></rc>
    <rc><c>Si</c><c>   1</c></rc>
    <rc><c>Si</c><c>   1</c></rc>
    <rc><c>Si</c><c>   1</c></rc>
    <rc><c>Si</c><c>   1</c></rc>
    <rc><c>Si</c><c>   1</c></rc>
    <rc><c>Si</c><c>   1</c></rc>
    <rc><c>Si</c><c>   1</c></rc>
    <rc><c>Si</c><c>   1</c></rc>
    <rc><c>Si</c><c>   1</c></rc>
    <rc><c>Si</c><c>   1</c></rc>
    <rc><c>Si</c><c>   1</c></rc>
    <rc><c>Si</c><c>   1</c></rc>
    <rc><c>Si</c><c>   1</c></rc>
    <rc><c>Si</c><c>   1</c></rc>
    <rc><c>Si</c><c>   1</c></rc>
    <rc><c>Si</c><c>   1</c></rc>
    <rc><c>Si</c><c>   1</c></rc>
    <rc><c>Si</c><c>   1</c></rc>
    <rc><c>Si</c><c>   1</c></rc>
    <rc><c>Si</c><c>   1</c></rc>
    <rc><c>Si</c><c>   1</c></rc>
    <rc><c>Si</c><c>   1</c></rc>
    <rc><c>Si</c><c>   1</c></rc>
    <rc><c>Si</c><c>   1</c></rc>
    <rc><c>Si</c><c>   1</c></rc>
    <rc><c>Si</c><c>   1</c></rc>
    <rc><c>Si</c><c>   1</c></rc>
    <rc><c>Si</c><c>   1</c></rc>
    <rc><c>Si</c><c>   1</c></rc>
    <rc><c>Si</c><c>   1</c></rc>
    <rc><c>Si</c><c>   1</c></rc>
    <rc><c>Si</c><c>   1</c></rc>
    <rc><c>Si</c><c>   1</c></rc>
    <rc><c>Si</c><c>   1</c></rc>
    <rc><c>Si</c><c>   1</c></rc>
    <rc><c>Si</c><c>   1</c></rc>
    <rc><c>Si</c><c>   1</c></rc>
    <rc><c>Si</c><c>   1</c></rc>
    <rc><c>Si</c><c>   1</c></rc>
    <rc><c>Si</c><c>   1</c></rc>
    <rc><c>Si</c><c>   1</c></rc>
    <rc><c>Si</c><c>   1</c></rc>
    <rc><c>Si</c><c>   1</c></rc>
    <rc><c>Si</c><c>   1</c></rc>
    <rc><c>Si</c><c>   1</c></rc>
    <rc><c>Si</c><c>   1</c></rc>
    <rc><c>Si</c><c>   1</c></rc>
    <rc><c>Si</c><c>   1</c></rc>
    <rc><c>Si</c><c>   1</c></rc>
    <rc><c>Si</c><c>   1</c></rc>
    <rc><c>Si</c><c>   1</c></rc>
    <rc><c>Si</c><c>   1</c></rc>
    <rc><c>Si</c><c>   1</c></rc>
    <rc><c>Si</c><c>   1</c></rc>
    <rc><c>Si</c><c>   1</c></rc>
    <rc><c>Si</c><c>   1</c></rc>
    <rc><c>Si</c><c>   1</c></rc>
    <rc><c>Si</c><c>   1</c></rc>
    <rc><c>Si</c><c>   1</c></rc>
    <rc><c>Si</c><c>   1</c></rc>
    <rc><c>Si</c><c>   1</c></rc>
    <rc><c>Si</c><c>   1</c></rc>
    <rc><c>Si</c><c>   1</c></rc>
    <rc><c>Si</c><c>   1</c></rc>
    <rc><c>Si</c><c>   1</c></rc>
    <rc><c>Si</c><c>   1</c></rc>
    <rc><c>Si</c><c>   1</c></rc>
    <rc><c>Si</c><c>   1</c></rc>
    <rc><c>Si</c><c>   1</c></rc>
    <rc><c>Si</c><c>   1</c></rc>
    <rc><c>Si</c><c>   1</c></rc>
    <rc><c>Si</c><c>   1</c></rc>
    <rc><c>Si</c><c>   1</c></rc>
    <rc><c>Si</c><c>   1</c></rc>
    <rc><c>Si</c><c>   1</c></rc>
    <rc><c>Si</c><c>   1</c></rc>
    <rc><c>Si</c><c>   1</c></rc>
    <rc><c>Si</c><c>   1</c></rc>
    <rc><c>Si</c><c>   1</c></rc>
    <rc><c>Si</c><c>   1</c></rc>
    <rc><c>Si</c><c>   1</c></rc>
    <rc><c>Si</c><c>   1</c></rc>
    <rc><c>Si</c><c>   1</c></rc>
    <rc><c>Si</c><c>   1</c></rc>
    <rc><c>Si</c><c>   1</c></rc>
[...]
   <v>       0.09375000       0.34375000       0.21875000 </v>
   <v>       0.34375000       0.34375000       0.21875000 </v>
   <v>       0.59375000       0.34375000       0.21875000 </v>
   <v>       0.84375000       0.34375000       0.21875000 </v>
   <v>       0.09375000       0.59375000       0.21875000 </v>
   <v>       0.34375000       0.59375000       0.21875000 </v>
   <v>       0.59375000       0.59375000       0.21875000 </v>
   <v>       0.84375000       0.59375000       0.21875000 </v>
   <v>       0.09375000       0.84375000       0.21875000 </v>
   <v>       0.34375000       0.84375000       0.21875000 </v>
   <v>       0.59375000       0.84375000       0.21875000 </v>
   <v>       0.84375000       0.84375000       0.21875000 </v>
   <v>       0.09375000       0.09375000       0.46875000 </v>
   <v>       0.34375000       0.09375000       0.46875000 </v>
   <v>       0.59375000       0.09375000       0.46875000 </v>
   <v>       0.84375000       0.09375000       0.46875000 </v>
   <v>       0.09375000       0.34375000       0.46875000 </v>
   <v>       0.34375000       0.34375000       0.46875000 </v>
   <v>       0.59375000       0.34375000       0.46875000 </v>
   <v>       0.84375000       0.34375000       0.46875000 </v>
   <v>       0.09375000       0.59375000       0.46875000 </v>
   <v>       0.34375000       0.59375000       0.46875000 </v>
   <v>       0.59375000       0.59375000       0.46875000 </v>
   <v>       0.84375000       0.59375000       0.46875000 </v>
   <v>       0.09375000       0.84375000       0.46875000 </v>
   <v>       0.34375000       0.84375000       0.46875000 </v>
   <v>       0.59375000       0.84375000       0.46875000 </v>
   <v>       0.84375000       0.84375000       0.46875000 </v>
   <v>       0.09375000       0.09375000       0.71875000 </v>
   <v>       0.34375000       0.09375000       0.71875000 </v>
   <v>       0.59375000       0.09375000       0.71875000 </v>
   <v>       0.84375000       0.09375000       0.71875000 </v>
   <v>       0.09375000       0.34375000       0.71875000 </v>
   <v>       0.34375000       0.34375000       0.71875000 </v>
   <v>       0.59375000       0.34375000       0.71875000 </v>
   <v>       0.84375000       0.34375000       0.71875000 </v>
   <v>       0.09375000       0.59375000       0.71875000 </v>
   <v>       0.34375000       0.59375000       0.71875000 </v>
   <v>       0.59375000       0.59375000       0.71875000 </v>
   <v>       0.84375000       0.59375000       0.71875000 </v>
   <v>       0.09375000       0.84375000       0.71875000 </v>
   <v>       0.34375000       0.84375000       0.71875000 </v>
   <v>       0.59375000       0.84375000       0.71875000 </v>
   <v>       0.84375000       0.84375000       0.71875000 </v>
   <v>       0.09375000       0.09375000       0.96875000 </v>
   <v>       0.34375000       0.09375000       0.96875000 </v>
   <v>       0.59375000       0.09375000       0.96875000 </v>
   <v>       0.84375000       0.09375000       0.96875000 </v>
   <v>       0.09375000       0.34375000       0.96875000 </v>
   <v>       0.34375000       0.34375000       0.96875000 </v>
   <v>       0.59375000       0.34375000       0.96875000 </v>
   <v>       0.84375000       0.34375000       0.96875000 </v>
   <v>       0.09375000       0.59375000       0.96875000 </v>
   <v>       0.34375000       0.59375000       0.96875000 </v>
   <v>       0.59375000       0.59375000       0.96875000 </v>
   <v>       0.84375000       0.59375000       0.96875000 </v>
   <v>       0.09375000       0.84375000       0.96875000 </v>
   <v>       0.34375000       0.84375000       0.96875000 </v>
   <v>       0.59375000       0.84375000       0.96875000 </v>
   <v>       0.84375000       0.84375000       0.96875000 </v>
   <v>       0.03125000       0.03125000       0.03125000 </v>
   <v>       0.28125000       0.03125000       0.03125000 </v>
   <v>       0.53125000       0.03125000       0.03125000 </v>
   <v>       0.78125000       0.03125000       0.03125000 </v>
   <v>       0.03125000       0.28125000       0.03125000 </v>
   <v>       0.28125000       0.28125000       0.03125000 </v>
   <v>       0.53125000       0.28125000       0.03125000 </v>
   <v>       0.78125000       0.28125000       0.03125000 </v>
   <v>       0.03125000       0.53125000       0.03125000 </v>
   <v>       0.28125000       0.53125000       0.03125000 </v>
   <v>       0.53125000       0.53125000       0.03125000 </v>
   <v>       0.78125000       0.53125000       0.03125000 </v>
   <v>       0.03125000       0.78125000       0.03125000 </v>
   <v>       0.28125000       0.78125000       0.03125000 </v>
   <v>       0.53125000       0.78125000       0.03125000 </v>
   <v>       0.78125000       0.78125000       0.03125000 </v>
   <v>       0.03125000       0.03125000       0.28125000 </v>
   <v>       0.28125000       0.03125000       0.28125000 </v>
   <v>       0.53125000       0.03125000       0.28125000 </v>
   <v>       0.78125000       0.03125000       0.28125000 </v>
   <v>       0.03125000       0.28125000       0.28125000 </v>
   <v>       0.28125000       0.28125000       0.28125000 </v>
   <v>       0.53125000       0.28125000       0.28125000 </v>
   <v>       0.78125000       0.28125000       0.28125000 </v>
   <v>       0.03125000       0.53125000       0.28125000 </v>
   <v>       0.28125000       0.53125000       0.28125000 </v>
   <v>       0.53125000       0.53125000       0.28125000 </v>
   <v>       0.78125000       0.53125000       0.28125000 </v>
   <v>       0.03125000       0.78125000       0.28125000 </v>
   <v>       0.28125000       0.78125000       0.28125000 </v>
   <v>       0.53125000       0.78125000       0.28125000 </v>
   <v>       0.78125000       0.78125000       0.28125000 </v>
   <v>       0.03125000       0.03125000       0.53125000 </v>
   <v>       0.28125000       0.03125000       0.53125000 </v>
   <v>       0.53125000       0.03125000       0.53125000 </v>
   <v>       0.78125000       0.03125000       0.53125000 </v>
   <v>       0.03125000       0.28125000       0.53125000 </v>
   <v>       0.28125000       0.28125000       0.53125000 </v>
   <v>       0.53125000       0.28125000       0.53125000 </v>
   <v>       0.78125000       0.28125000       0.53125000 </v>
   <v>       0.03125000       0.53125000       0.53125000 </v>
   <v>       0.28125000       0.53125000       0.53125000 </v>
   <v>       0.53125000       0.53125000       0.53125000 </v>
   <v>       0.78125000       0.53125000       0.53125000 </v>
   <v>       0.03125000       0.78125000       0.53125000 </v>
   <v>       0.28125000       0.78125000       0.53125000 </v>
   <v>       0.53125000       0.78125000       0.53125000 </v>
   <v>       0.78125000       0.78125000       0.53125000 </v>
   <v>       0.03125000       0.03125000       0.78125000 </v>
   <v>       0.28125000       0.03125000       0.78125000 </v>
   <v>       0.53125000       0.03125000       0.78125000 </v>
   <v>       0.78125000       0.03125000       0.78125000 </v>
   <v>       0.03125000       0.28125000       0.78125000 </v>
   <v>       0.28125000       0.28125000       0.78125000 </v>
   <v>       0.53125000       0.28125000       0.78125000 </v>
   <v>       0.78125000       0.28125000       0.78125000 </v>
   <v>       0.03125000       0.53125000       0.78125000 </v>
   <v>       0.28125000       0.53125000       0.78125000 </v>
   <v>       0.53125000       0.53125000       0.78125000 </v>
   <v>       0.78125000       0.53125000       0.78125000 </v>
   <v>       0.03125000       0.78125000       0.78125000 </v>
   <v>       0.28125000       0.78125000       0.78125000 </v>
   <v>       0.53125000       0.78125000       0.78125000 </v>
   <v>       0.78125000       0.78125000       0.78125000 </v>
   <v>       0.03125000       0.15625000       0.15625000 </v>
   <v>       0.28125000       0.15625000       0.15625000 </v>
   <v>       0.53125000       0.15625000       0.15625000 </v>
   <v>       0.78125000       0.15625000       0.15625000 </v>
   <v>       0.03125000       0.40625000       0.15625000 </v>
   <v>       0.28125000       0.40625000       0.15625000 </v>
   <v>       0.53125000       0.40625000       0.15625000 </v>
   <v>       0.78125000       0.40625000       0.15625000 </v>
   <v>       0.03125000       0.65625000       0.15625000 </v>
   <v>       0.28125000       0.65625000       0.15625000 </v>
   <v>       0.53125000       0.65625000       0.15625000 </v>
   <v>       0.78125000       0.65625000       0.15625000 </v>
   <v>       0.03125000       0.90625000       0.15625000 </v>
   <v>       0.28125000       0.90625000       0.15625000 </v>
   <v>       0.53125000       0.90625000       0.15625000 </v>
   <v>       0.78125000       0.90625000       0.15625000 </v>
   <v>       0.03125000       0.15625000       0.40625000 </v>
   <v>       0.28125000       0.15625000       0.40625000 </v>
   <v>       0.53125000       0.15625000       0.40625000 </v>
   <v>       0.78125000       0.15625000       0.40625000 </v>
   <v>       0.03125000       0.40625000       0.40625000 </v>
   <v>       0.28125000       0.40625000       0.40625000 </v>
   <v>       0.53125000       0.40625000       0.40625000 </v>
   <v>       0.78125000       0.40625000       0.40625000 </v>
   <v>       0.03125000       0.65625000       0.40625000 </v>
   <v>       0.28125000       0.65625000       0.40625000 </v>
   <v>       0.53125000       0.65625000       0.40625000 </v>
   <v>       0.78125000       0.65625000       0.40625000 </v>
   <v>       0.03125000       0.90625000       0.40625000 </v>
   <v>       0.28125000       0.90625000       0.40625000 </v>
   <v>       0.53125000       0.90625000       0.40625000 </v>
   <v>       0.78125000       0.90625000       0.40625000 </v>
   <v>       0.03125000       0.15625000       0.65625000 </v>
   <v>       0.28125000       0.15625000       0.65625000 </v>
   <v>       0.53125000       0.15625000       0.65625000 </v>
   <v>       0.78125000       0.15625000       0.65625000 </v>
   <v>       0.03125000       0.40625000       0.65625000 </v>
   <v>       0.28125000       0.40625000       0.65625000 </v>
   <v>       0.53125000       0.40625000       0.65625000 </v>
   <v>       0.78125000       0.40625000       0.65625000 </v>
   <v>       0.03125000       0.65625000       0.65625000 </v>
   <v>       0.28125000       0.65625000       0.65625000 </v>
   <v>       0.53125000       0.65625000       0.65625000 </v>
   <v>       0.78125000       0.65625000       0.65625000 </v>
   <v>       0.03125000       0.90625000       0.65625000 </v>
   <v>       0.28125000       0.90625000       0.65625000 </v>
   <v>       0.53125000       0.90625000       0.65625000 </v>
   <v>       0.78125000       0.90625000       0.65625000 </v>
   <v>       0.03125000       0.15625000       0.90625000 </v>
   <v>       0.28125000       0.15625000       0.90625000 </v>
   <v>       0.53125000       0.15625000       0.90625000 </v>
   <v>       0.78125000       0.15625000       0.90625000 </v>
   <v>       0.03125000       0.40625000       0.90625000 </v>
   <v>       0.28125000       0.40625000       0.90625000 </v>
   <v>       0.53125000       0.40625000       0.90625000 </v>
   <v>       0.78125000       0.40625000       0.90625000 </v>
   <v>       0.03125000       0.65625000       0.90625000 </v>
   <v>       0.28125000       0.65625000       0.90625000 </v>
   <v>       0.53125000       0.65625000       0.90625000 </v>
   <v>       0.78125000       0.65625000       0.90625000 </v>
   <v>       0.03125000       0.90625000       0.90625000 </v>
   <v>       0.28125000       0.90625000       0.90625000 </v>
   <v>       0.53125000       0.90625000       0.90625000 </v>
   <v>       0.78125000       0.90625000       0.90625000 </v>
   <v>       0.15625000       0.03125000       0.15625000 </v>
   <v>       0.40625000       0.03125000       0.15625000 </v>
   <v>       0.65625000       0.03125000       0.15625000 </v>
   <v>       0.90625000       0.03125000       0.15625000 </v>
   <v>       0.15625000       0.28125000       0.15625000 </v>
   <v>       0.40625000       0.28125000       0.15625000 </v>
   <v>       0.65625000       0.28125000       0.15625000 </v>
   <v>       0.90625000       0.28125000       0.15625000 </v>
   <v>       0.15625000       0.53125000       0.15625000 </v>
   <v>       0.40625000       0.53125000       0.15625000 </v>
   <v>       0.65625000       0.53125000       0.15625000 </v>
   <v>       0.90625000       0.53125000       0.15625000 </v>
   <v>       0.15625000       0.78125000       0.15625000 </v>
   <v>       0.40625000       0.78125000       0.15625000 </v>
   <v>       0.65625000       0.78125000       0.15625000 </v>
   <v>       0.90625000       0.78125000       0.15625000 </v>
   <v>       0.15625000       0.03125000       0.40625000 </v>
   <v>       0.40625000       0.03125000       0.40625000 </v>
   <v>       0.65625000       0.03125000       0.40625000 </v>
   <v>       0.90625000       0.03125000       0.40625000 </v>
   <v>       0.15625000       0.28125000       0.40625000 </v>
   <v>       0.40625000       0.28125000       0.40625000 </v>
   <v>       0.65625000       0.28125000       0.40625000 </v>
   <v>       0.90625000       0.28125000       0.40625000 </v>
   <v>       0.15625000       0.53125000       0.40625000 </v>
   <v>       0.40625000       0.53125000       0.40625000 </v>
   <v>       0.65625000       0.53125000       0.40625000 </v>
   <v>       0.90625000       0.53125000       0.40625000 </v>
   <v>       0.15625000       0.78125000       0.40625000 </v>
   <v>       0.40625000       0.78125000       0.40625000 </v>
   <v>       0.65625000       0.78125000       0.40625000 </v>
   <v>       0.90625000       0.78125000       0.40625000 </v>
   <v>       0.15625000       0.03125000       0.65625000 </v>
   <v>       0.40625000       0.03125000       0.65625000 </v>
   <v>       0.65625000       0.03125000       0.65625000 </v>
   <v>       0.90625000       0.03125000       0.65625000 </v>
   <v>       0.15625000       0.28125000       0.65625000 </v>
   <v>       0.40625000       0.28125000       0.65625000 </v>
   <v>       0.65625000       0.28125000       0.65625000 </v>
   <v>       0.90625000       0.28125000       0.65625000 </v>
   <v>       0.15625000       0.53125000       0.65625000 </v>
   <v>       0.40625000       0.53125000       0.65625000 </v>
   <v>       0.65625000       0.53125000       0.65625000 </v>
   <v>       0.90625000       0.53125000       0.65625000 </v>
   <v>       0.15625000       0.78125000       0.65625000 </v>
   <v>       0.40625000       0.78125000       0.65625000 </v>
   <v>       0.65625000       0.78125000       0.65625000 </v>
   <v>       0.90625000       0.78125000       0.65625000 </v>
   <v>       0.15625000       0.03125000       0.90625000 </v>
   <v>       0.40625000       0.03125000       0.90625000 </v>
   <v>       0.65625000       0.03125000       0.90625000 </v>
   <v>       0.90625000       0.03125000       0.90625000 </v>
   <v>       0.15625000       0.28125000       0.90625000 </v>
   <v>       0.40625000       0.28125000       0.90625000 </v>
   <v>       0.65625000       0.28125000       0.90625000 </v>
   <v>       0.90625000       0.28125000       0.90625000 </v>
   <v>       0.15625000       0.53125000       0.90625000 </v>
   <v>       0.40625000       0.53125000       0.90625000 </v>
   <v>       0.65625000       0.53125000       0.90625000 </v>
   <v>       0.90625000       0.53125000       0.90625000 </v>
   <v>       0.15625000       0.78125000       0.90625000 </v>
   <v>       0.40625000       0.78125000       0.90625000 </v>
   <v>       0.65625000       0.78125000       0.90625000 </v>
   <v>       0.90625000       0.78125000       0.90625000 </v>
   <v>       0.15625000       0.15625000       0.03125000 </v>
   <v>       0.40625000       0.15625000       0.03125000 </v>
   <v>       0.65625000       0.15625000       0.03125000 </v>
   <v>       0.90625000       0.15625000       0.03125000 </v>
   <v>       0.15625000       0.40625000       0.03125000 </v>
   <v>       0.40625000       0.40625000       0.03125000 </v>
   <v>       0.65625000       0.40625000       0.03125000 </v>
   <v>       0.90625000       0.40625000       0.03125000 </v>
   <v>       0.15625000       0.65625000       0.03125000 </v>
   <v>       0.40625000       0.65625000       0.03125000 </v>
   <v>       0.65625000       0.65625000       0.03125000 </v>
   <v>       0.90625000       0.65625000       0.03125000 </v>
   <v>       0.15625000       0.90625000       0.03125000 </v>
   <v>       0.40625000       0.90625000       0.03125000 </v>
   <v>       0.65625000       0.90625000       0.03125000 </v>
   <v>       0.90625000       0.90625000       0.03125000 </v>
   <v>       0.15625000       0.15625000       0.28125000 </v>
   <v>       0.40625000       0.15625000       0.28125000 </v>
   <v>       0.65625000       0.15625000       0.28125000 </v>
   <v>       0.90625000       0.15625000       0.28125000 </v>
   <v>       0.15625000       0.40625000       0.28125000 </v>
   <v>       0.40625000       0.40625000       0.28125000 </v>
   <v>       0.65625000       0.40625000       0.28125000 </v>
   <v>       0.90625000       0.40625000       0.28125000 </v>
   <v>       0.15625000       0.65625000       0.28125000 </v>
   <v>       0.40625000       0.65625000       0.28125000 </v>
   <v>       0.65625000       0.65625000       0.28125000 </v>
   <v>       0.90625000       0.65625000       0.28125000 </v>
   <v>       0.15625000       0.90625000       0.28125000 </v>
   <v>       0.40625000       0.90625000       0.28125000 </v>
   <v>       0.65625000       0.90625000       0.28125000 </v>
   <v>       0.90625000       0.90625000       0.28125000 </v>
   <v>       0.15625000       0.15625000       0.53125000 </v>
   <v>       0.40625000       0.15625000       0.53125000 </v>
   <v>       0.65625000       0.15625000       0.53125000 </v>
   <v>       0.90625000       0.15625000       0.53125000 </v>
   <v>       0.15625000       0.40625000       0.53125000 </v>
   <v>       0.40625000       0.40625000       0.53125000 </v>
   <v>       0.65625000       0.40625000       0.53125000 </v>
   <v>       0.90625000       0.40625000       0.53125000 </v>
   <v>       0.15625000       0.65625000       0.53125000 </v>
   <v>       0.40625000       0.65625000       0.53125000 </v>
   <v>       0.65625000       0.65625000       0.53125000 </v>
   <v>       0.90625000       0.65625000       0.53125000 </v>
   <v>       0.15625000       0.90625000       0.53125000 </v>
   <v>       0.40625000       0.90625000       0.53125000 </v>
   <v>       0.65625000       0.90625000       0.53125000 </v>
   <v>       0.90625000       0.90625000       0.53125000 </v>
   <v>       0.15625000       0.15625000       0.78125000 </v>
   <v>       0.40625000       0.15625000       0.78125000 </v>
   <v>       0.65625000       0.15625000       0.78125000 </v>
   <v>       0.90625000       0.15625000       0.78125000 </v>
   <v>       0.15625000       0.40625000       0.78125000 </v>
   <v>       0.40625000       0.40625000       0.78125000 </v>
   <v>       0.65625000       0.40625000       0.78125000 </v>
   <v>       0.90625000       0.40625000       0.78125000 </v>
   <v>       0.15625000       0.65625000       0.78125000 </v>
   <v>       0.40625000       0.65625000       0.78125000 </v>
   <v>       0.65625000       0.65625000       0.78125000 </v>
   <v>       0.90625000       0.65625000       0.78125000 </v>
   <v>       0.15625000       0.90625000       0.78125000 </v>
   <v>       0.40625000       0.90625000       0.78125000 </v>
   <v>       0.65625000       0.90625000       0.78125000 </v>
   <v>       0.90625000       0.90625000       0.78125000 </v>
  </varray>
 </structure>
</modeling>
